LAMMPS (3 Mar 2020)
units           lj
atom_style      angle

read_restart    0Bonds.restart
WARNING: Restart file used different # of processors: 2 vs. 96 (../read_restart.cpp:752)
  restoring atom style angle from restart
  orthogonal box = (23.0206 23.0206 23.0206) to (100.466 100.466 100.466)
  4 by 4 by 6 MPI processor grid
  restoring pair style lj96/cut from restart
  restoring bond style harmonic from restart
  restoring angle style table from restart
  1000000 atoms
  999000 bonds
  998000 angles
  2 = max # of 1-2 neighbors
  2 = max # of 1-3 neighbors
  4 = max # of 1-4 neighbors
  6 = max # of special neighbors
  special bonds CPU = 0.052949 secs
  read_restart CPU = 1.02249 secs

pair_style      lj96/cut 1.0188
pair_modify shift yes
pair_coeff 1 1 0.37775 0.89

bond_style      harmonic
bond_coeff 1 1000.0 0.5

angle_style   table linear 1801
angle_coeff 1 cgpva.table CG_PVA


special_bonds lj 0.0 0.0 1.0

thermo          5000
thermo_style    custom step temp epair emol etotal press vol lx ly lz density enthalpy ebond eangle
timestep        0.01

fix             1 all npt temp 0.90 0.75 1.0 iso 8.0 8.0 10.0

dump            1  all atom 10000 poly.dump
dump_modify     1  image yes scale no

restart         1000000 poly.restart
run             75000000
Neighbor list info ...
  update every 1 steps, delay 10 steps, check yes
  max neighbors/atom: 2000, page size: 100000
  master list distance cutoff = 1.3188
  ghost atom cutoff = 1.3188
  binsize = 0.6594, bins = 118 118 118
  1 neighbor lists, perpetual/occasional/extra = 1 0 0
  (1) pair lj96/cut, perpetual
      attributes: half, newton on
      pair build: half/bin/newton
      stencil: half/bin/3d/newton
      bin: standard
Per MPI rank memory allocation (min/avg/max) = 11.57 | 11.58 | 11.58 Mbytes
Step Temp E_pair E_mol TotEng Press Volume Lx Ly Lz Density Enthalpy E_bond E_angle 
       0   0.89930937    0.3753767    2.6378274    4.3621668    7.9922457    464501.24      77.4454      77.4454      77.4454    2.1528468    8.0745749   0.48729089    2.1505365 
    5000   0.90085263   0.37556664    2.6414789    4.3683231    7.9964356    464515.66    77.446201    77.446201    77.446201    2.1527799    8.0827927   0.48908633    2.1523926 
   10000   0.90105197   0.37585629    2.6420996    4.3695325    7.9977237    464732.95    77.458275    77.458275    77.458275    2.1517734    8.0863382   0.48970296    2.1523966 
   15000   0.90150044   0.37580069    2.6403793    4.3684293      8.02127    464502.79    77.445486    77.445486    77.445486    2.1528396    8.0943316    0.4894234    2.1509559 
   20000   0.89969813    0.3760918    2.6422627    4.3679003     7.972759    464730.26    77.458126    77.458126    77.458126    2.1517858    8.0730827   0.48960079    2.1526619 
   25000   0.90136649   0.37602983    2.6399691    4.3680473    8.0121634    464699.29    77.456405    77.456405    77.456405    2.1519292     8.091294   0.48853007     2.151439 
   30000   0.90163587   0.37569429    2.6415438    4.3696906    7.9800329    464586.81    77.450155    77.450155    77.450155    2.1524503    8.0771086   0.48846859    2.1530752 
   35000   0.89966186   0.37529003    2.6416186    4.3664001    7.9945928    464680.91    77.455384    77.455384    77.455384    2.1520144    8.0813347   0.49072895    2.1508896 
   40000   0.90166456   0.37561319    2.6419104    4.3700191    7.9870679    464447.27      77.4424      77.4424      77.4424     2.153097    8.0795909   0.49005602    2.1518544 
   45000   0.90162447   0.37685882    2.6396599     4.368954    7.9998905    464518.44    77.446356    77.446356    77.446356     2.152767    8.0850507   0.48904194    2.1506179 
   50000   0.90123948   0.37559086     2.640581    4.3680297    8.0078273    464492.82    77.444932    77.444932    77.444932    2.1528858     8.087608   0.48922435    2.1513567 
   55000   0.89941735   0.37670617    2.6417407    4.3675715    7.9956905    464488.26    77.444678    77.444678    77.444678     2.152907    8.0814758   0.48934044    2.1524002 
   60000   0.90009465   0.37621007    2.6403148    4.3666655    7.9883019    464609.32    77.451406    77.451406    77.451406     2.152346     8.078105    0.4888329    2.1514819 
   65000   0.90236262   0.37398852    2.6403756    4.3679067    7.9713903    464592.13    77.450451    77.450451    77.450451    2.1524256    8.0713519   0.48913551      2.15124 
   70000   0.90100001   0.37576229     2.640408     4.367669    7.9996256    464559.43    77.448633    77.448633    77.448633    2.1525771    8.0839704   0.48951784    2.1508902 
   75000   0.90067468   0.37679889    2.6408327    4.3686423    8.0101981    464552.12    77.448227    77.448227    77.448227     2.152611    8.0897968    0.4892512    2.1515815 
   80000   0.90124306   0.37630722    2.6429418    4.3711123    8.0033865    464335.41    77.436183    77.436183    77.436183    2.1536156     8.087368   0.48956849    2.1533733 
   85000   0.90129136   0.37682113    2.6410857    4.3698425    8.0214275    464516.77    77.446263    77.446263    77.446263    2.1527748    8.0959301   0.48914591    2.1519398 
   90000   0.90174475   0.37579561    2.6410099    4.3694213    8.0098643     464536.7     77.44737     77.44737     77.44737    2.1526825    8.0902971   0.48881382    2.1521961 
   95000   0.90069272   0.37513466    2.6418474    4.3680198    7.9805261    464703.73    77.456651    77.456651    77.456651    2.1519087       8.0766   0.48849663    2.1533508 
  100000      0.90164   0.37633482    2.6387288    4.3675222    8.0077829    464554.35    77.448351    77.448351    77.448351    2.1526006    8.0875727   0.48878409    2.1499447 
  105000   0.90138719   0.37619827    2.6412421    4.3695198    8.0117775    464542.95    77.447718    77.447718    77.447718    2.1526535    8.0913345    0.4877692    2.1534729 
  110000    0.9009441   0.37593352    2.6419206    4.3692689    7.9912013    464613.51    77.451639    77.451639    77.451639    2.1523266     8.082089   0.48898041    2.1529402 
  115000   0.90101862   0.37523441    2.6434279    4.3701889    8.0031213    464608.34    77.451351    77.451351    77.451351    2.1523505    8.0885058    0.4893462    2.1540817 
  120000   0.90132413   0.37609948    2.6408739    4.3689582    7.9738312    464477.42    77.444076    77.444076    77.444076    2.1529572    8.0726228   0.48816492     2.152709 
  125000   0.90030063   0.37582326    2.6425498    4.3688227    8.0040605    464484.21    77.444453    77.444453    77.444453    2.1529257    8.0865824   0.48919161    2.1533582 
  130000   0.90063419   0.37651383    2.6411719    4.3686357    8.0045791    464621.29    77.452071    77.452071    77.452071    2.1522905    8.0877336   0.48971697    2.1514549 
  135000     0.901173   0.37548205    2.6387668     4.366007     7.990542    464519.38    77.446408    77.446408    77.446408    2.1527627    8.0777685   0.48974976     2.149017 
  140000   0.90150916   0.37528172    2.6407862    4.3683303    8.0314867    464534.07    77.447224    77.447224    77.447224    2.1526947    8.0992295    0.4896717    2.1511145 
  145000   0.90183981   0.37602895    2.6400311    4.3688184    8.0317166    464393.05    77.439386    77.439386    77.439386    2.1533483    8.0986917    0.4890977    2.1509334 
  150000   0.90103051   0.37574545     2.640922    4.3682119     8.010779    464463.81    77.443319    77.443319    77.443319    2.1530203    8.0889288   0.48933431    2.1515877 
  155000   0.90001708   0.37541771    2.6424813    4.3679233    7.9926111    464527.54    77.446861    77.446861    77.446861    2.1527249    8.0807112   0.48959716    2.1528841 
  160000   0.90117012   0.37565275    2.6391132    4.3665198    7.9986728     464596.8     77.45071     77.45071     77.45071     2.152404    8.0826776   0.48976941    2.1493438 
  165000   0.90077142   0.37511631    2.6418561    4.3681282    7.9958221    464625.41      77.4523      77.4523      77.4523    2.1522714    8.0831904    0.4899998    2.1518563 
  170000   0.90145407   0.37536805    2.6383629    4.3659108    8.0248482    464602.14    77.451007    77.451007    77.451007    2.1523793    8.0942724   0.49015181    2.1482111 
  175000   0.90069506   0.37443365    2.6413577    4.3668326    7.9822986    464652.36    77.453797    77.453797    77.453797    2.1521466    8.0758264   0.48984347    2.1515142 
  180000   0.90004584   0.37593297    2.6390137    4.3650141    8.0090579    464705.64    77.456758    77.456758    77.456758    2.1518998    8.0868685   0.48865322    2.1503605 
  185000   0.90005152   0.37677046    2.6412011    4.3680475    8.0388872    464466.99    77.443496    77.443496    77.443496    2.1530055    8.1018452    0.4903887    2.1508124 
  190000   0.90090119   0.37638901    2.6376468    4.3653863    8.0041093    464670.42    77.454801    77.454801    77.454801     2.152063    8.0846591   0.48965615    2.1479907 
  195000   0.90077912   0.37585801    2.6417576     4.368783    7.9696365    464511.22    77.445954    77.445954    77.445954    2.1528005    8.0707686   0.48844434    2.1533133 
  200000   0.90040005   0.37645812    2.6392604    4.3663173    8.0056901    464547.75    77.447985    77.447985    77.447985    2.1526312    8.0853426   0.48854511    2.1507153 
  205000   0.90163597   0.37541732    2.6408764    4.3687463    8.0471635    464517.77    77.446318    77.446318    77.446318    2.1527702    8.1067967   0.48890347     2.151973 
  210000   0.90162846   0.37619287    2.6387572    4.3673914    7.9958036     464587.4    77.450188    77.450188    77.450188    2.1524475     8.082141   0.48815522     2.150602 
  215000   0.90141631   0.37526864    2.6392592    4.3666509    8.0113446    464656.31    77.454017    77.454017    77.454017    2.1521283    8.0891728   0.48909952    2.1501597 
  220000   0.90157761   0.37526339    2.6428361    4.3704646    7.9977834    464567.22    77.449067    77.449067    77.449067     2.152541    8.0859726   0.48909237    2.1537437 
  225000   0.90067299   0.37747916    2.6404769    4.3689642    8.0238766    464396.06    77.439554    77.439554    77.439554    2.1533344    8.0952208    0.4888891    2.1515878 
  230000   0.90069506   0.37549904      2.64154    4.3680803    8.0007097    464537.67    77.447424    77.447424    77.447424     2.152678    8.0847113   0.48932478    2.1522152 
  235000   0.89986948   0.37533846    2.6407004    4.3658417    8.0409188    464551.23    77.448178    77.448178    77.448178    2.1526151    8.1012604   0.49015793    2.1505424 
  240000   0.89897487   0.37606197    2.6423382    4.3668611    7.9759625    464693.34    77.456075    77.456075    77.456075    2.1519568    8.0732378   0.49004608    2.1522921 
  245000   0.90045858   0.37544697    2.6400625     4.366196    7.9823051    464667.54    77.454641    77.454641    77.454641    2.1520763    8.0753141   0.48920588    2.1508567 
  250000   0.90127167   0.37508807    2.6409739    4.3679681    7.9746605    464578.29    77.449681    77.449681    77.449681    2.1524898    8.0728222   0.48936983     2.151604 
  255000   0.90061414   0.37559424    2.6408328    4.3673469    8.0060038    464427.51    77.441302    77.441302    77.441302    2.1531886    8.0855553   0.48947741    2.1513554 
  260000     0.902136   0.37543655    2.6388785    4.3675177    8.0140971    464448.51    77.442469    77.442469    77.442469    2.1530912    8.0896531   0.48842667    2.1504518 
  265000   0.90004824   0.37433537    2.6401199    4.3645263    7.9729254     464677.1    77.455172    77.455172    77.455172     2.152032    8.0693622   0.48846978    2.1516502 
  270000   0.90030323   0.37640341    2.6380576    4.3649145    7.9874678    464416.49    77.440689    77.440689    77.440689    2.1532396    8.0744262   0.48871628    2.1493413 
  275000   0.90167367   0.37461278    2.6394081    4.3665301    8.0019081    464510.19    77.445897    77.445897    77.445897    2.1528053    8.0834979    0.4896221     2.149786 
  280000   0.90047697   0.37561887    2.6418936    4.3682266     7.989432    464544.84    77.447823    77.447823    77.447823    2.1526447     8.079676   0.48977526    2.1521183 
  285000   0.90081563   0.37507387    2.6399132    4.3662092    7.9911257    464709.92    77.456996    77.456996    77.456996      2.15188    8.0797646    0.4895634    2.1503498 
  290000   0.90136811   0.37568993    2.6387831    4.3665239    8.0410081    464546.59     77.44792     77.44792     77.44792    2.1526366    8.1019468   0.48852409     2.150259 
  295000   0.90075784   0.37576124    2.6381911    4.3650878    7.9941168    464612.55    77.451585    77.451585    77.451585     2.152331    8.0792547   0.48829314     2.149898 
  300000   0.90163637   0.37578515    2.6397851    4.3680234    8.0108794    464469.15    77.443616    77.443616    77.443616    2.1529955    8.0888298   0.48874366    2.1510414 
  305000   0.90016605   0.37525249    2.6388068     4.364307    7.9858588    464696.93    77.456274    77.456274    77.456274    2.1519402    8.0753111   0.48916202    2.1496448 
  310000   0.90017344   0.37563476    2.6419414     4.367835    8.0164999    464626.68    77.452371    77.452371    77.452371    2.1522655    8.0925148   0.48996592    2.1519755 
  315000   0.90093147   0.37524638    2.6389324    4.3655747    8.0172262    464627.57     77.45242     77.45242     77.45242    2.1522615     8.090599   0.48890382    2.1500286 
  320000   0.90071414   0.37640157    2.6394568    4.3669283    8.0357826    464463.18    77.443285    77.443285    77.443285    2.1530232    8.0992534   0.48911401    2.1503428 
  325000   0.90088797   0.37536574    2.6380361    4.3647325    7.9916944    464571.14    77.449284    77.449284    77.449284    2.1525229     8.077443   0.48919153    2.1488446 
  330000   0.90041076    0.3756316    2.6399607    4.3662071    7.9934358    464471.44    77.443744    77.443744    77.443744    2.1529849    8.0789297   0.48879099    2.1511697 
  335000   0.90130165    0.3753242    2.6365024    4.3637777    7.9647749    464596.07     77.45067     77.45067     77.45067    2.1524074    8.0641808   0.48868313    2.1478192 
  340000    0.9004527   0.37516274    2.6400712    4.3659116    7.9901762    464576.34    77.449573    77.449573    77.449573    2.1524988    8.0779584   0.48898336    2.1510878 
  345000   0.89977433   0.37517431    2.6373994    4.3622338    7.9823867    464783.98     77.46111     77.46111     77.46111    2.1515372    8.0723192   0.48841487    2.1489845 
  350000   0.90155128   0.37513033    2.6369948    4.3644507    7.9939568     464567.1     77.44906     77.44906     77.44906    2.1525416      8.07818    0.4882151    2.1487797 
  355000   0.90165875   0.37526127    2.6388543    4.3666023    8.0005156    464502.76    77.445484    77.445484    77.445484    2.1528397    8.0828639    0.4874592    2.1513951 
  360000   0.89980659   0.37577374    2.6395745    4.3650568    8.0043998    464608.94    77.451385    77.451385    77.451385    2.1523478    8.0839725   0.48906379    2.1505107 
  365000   0.90033424   0.37543153     2.639602    4.3655336    7.9888983    464515.76    77.446207    77.446207    77.446207    2.1527795    8.0765028   0.48840294    2.1511991 
  370000   0.90020334    0.3760058    2.6395561    4.3658655    7.9962641    464608.89    77.451382    77.451382    77.451382     2.152348    8.0810009   0.48915574    2.1504003 
  375000   0.89955146   0.37639157    2.6416639    4.3673814    8.0138554    464479.01    77.444164    77.444164    77.444164    2.1529498     8.089649   0.48926953    2.1523944 
  380000   0.90076632   0.37442417    2.6391457     4.364718    8.0015756    464695.29    77.456183    77.456183    77.456183    2.1519478    8.0830125   0.48793634    2.1512094 
  385000   0.90089228   0.37511526    2.6399595    4.3664118    8.0116355    464580.22    77.449789    77.449789    77.449789    2.1524808    8.0884592   0.48920102    2.1507585 
  390000   0.90021922   0.37510855    2.6402929    4.3657289    7.9848881    464519.26    77.446401    77.446401    77.446401    2.1527633    8.0748632   0.48891526    2.1513776 
  395000    0.9003838    0.3756675    2.6382262    4.3644681    8.0000748    464560.52    77.448694    77.448694    77.448694    2.1525721     8.080987   0.48908742    2.1491388 
  400000   0.90044987   0.37638231    2.6418109    4.3688667    7.9928567    464528.62    77.446922    77.446922    77.446922    2.1527199    8.0817774   0.48917076    2.1526402 
  405000   0.90007268   0.37505332    2.6380874    4.3632484     7.991426    464562.69    77.448815    77.448815    77.448815     2.152562    8.0757667   0.48855643    2.1495309 
  410000   0.90008309   0.37562509    2.6393653    4.3651137    7.9656084    464727.39    77.457966    77.457966    77.457966    2.1517991    8.0669501    0.4890966    2.1502687 
  415000    0.9000132   0.37570075      2.63837    4.3640892     7.977239    464493.42    77.444965    77.444965    77.444965     2.152883    8.0694643   0.48965954    2.1487105 
  420000   0.89979359   0.37654275    2.6378363    4.3640681    7.9820262    464578.33    77.449684    77.449684    77.449684    2.1524895    8.0723445   0.48851483    2.1493215 
  425000   0.90073734   0.37689327    2.6370772    4.3650751    8.0261572    464364.14     77.43778     77.43778     77.43778    2.1534824    8.0921348   0.48842516    2.1486521 
  430000   0.90124244    0.3765541    2.6379262    4.3663426    8.0331971    464388.69    77.439144    77.439144    77.439144    2.1533685    8.0968684   0.48850681    2.1494193 
  435000   0.90050692    0.3765376    2.6375559    4.3648526    8.0308834     464544.5    77.447804    77.447804    77.447804    2.1526463    8.0955553   0.48833253    2.1492234 
  440000   0.90139334   0.37558059    2.6365701    4.3642394    7.9972228    464462.59    77.443252    77.443252    77.443252    2.1530259    8.0786502   0.48822868    2.1483415 
  445000   0.90009987   0.37566959    2.6396958    4.3655138     8.007685    464590.16    77.450341    77.450341    77.450341    2.1524347    8.0858055   0.48957218    2.1501236 
  450000   0.89957506   0.37702432    2.6388636    4.3652492    8.0281178    464297.76    77.434089    77.434089    77.434089    2.1537903    8.0926862   0.48886525    2.1499984 
  455000   0.90003722   0.37533646     2.637959    4.3633499    8.0258057    464558.09    77.448559    77.448559    77.448559    2.1525833    8.0918029   0.48980283    2.1481561 
  460000   0.90011667   0.37639526    2.6371643    4.3637332    7.9938152    464469.85    77.443655    77.443655    77.443655    2.1529923    8.0766194   0.48786745    2.1492969 
  465000   0.90025317   0.37589601    2.6398521    4.3661265    8.0053421    464424.14    77.441115    77.441115    77.441115    2.1532042    8.0840006   0.48942381    2.1504283 
  470000    0.8998781   0.37514188    2.6372017    4.3621594    7.9815487    464756.55    77.459586    77.459586    77.459586    2.1516642    8.0716364    0.4894389    2.1477628 
  475000   0.90014031   0.37491745     2.638995    4.3641216    7.9489945    464605.53    77.451196    77.451196    77.451196    2.1523635    8.0572684   0.48798797     2.151007 
  480000   0.89954097   0.37559826    2.6397961    4.3647044    7.9821559     464513.3     77.44607     77.44607     77.44607    2.1527909     8.072522   0.48859623    2.1511998 
  485000   0.90106795   0.37491637     2.638417    4.3649339    7.9982233    464574.79    77.449487    77.449487    77.449487    2.1525059    8.0807068   0.49019853    2.1482185 
  490000   0.89955186   0.37571536     2.638925    4.3639668    7.9868017    464545.82    77.447877    77.447877    77.447877    2.1526402    8.0742022   0.48925759    2.1496674 
  495000   0.90104197   0.37534377    2.6396093    4.3665147      8.00989    464402.58    77.439916    77.439916    77.439916    2.1533042    8.0863282    0.4897666    2.1498427 
  500000   0.89982781   0.37514685    2.6403623    4.3652495    7.9817871    464483.17    77.444396    77.444396    77.444396    2.1529305    8.0726553   0.48832486    2.1520374 
  505000   0.90042123   0.37645424    2.6397908    4.3668756    7.9903216    464410.99    77.440384    77.440384    77.440384    2.1532651    8.0776687   0.48832828    2.1514625 
  510000    0.8996283   0.37604573    2.6380722    4.3635591    7.9955426    464565.91    77.448994    77.448994    77.448994    2.1525471    8.0780156   0.48867098    2.1494013 
  515000   0.89983321   0.37576455     2.639874     4.365387    8.0139045    464449.39    77.442518    77.442518    77.442518    2.1530871    8.0874401   0.48893147    2.1509425 
  520000   0.90024016   0.37618839    2.6398855    4.3664328    7.9641291    464628.29     77.45246     77.45246     77.45246    2.1522581    8.0667924   0.48813437    2.1517511 
  525000   0.89975664   0.37563519    2.6380526    4.3633214    7.9882953    464503.45    77.445522    77.445522    77.445522    2.1528366    8.0739121   0.48896774    2.1490849 
  530000   0.90115783   0.37616145    2.6374813    4.3653781    8.0031904    464486.67     77.44459     77.44459     77.44459    2.1529143    8.0827534   0.48810949    2.1493718 
  535000   0.90102726   0.37524496    2.6399838    4.3667683    8.0187671    464433.23     77.44162     77.44162     77.44162    2.1531621    8.0909502   0.48821326    2.1517706 
  540000   0.90062239   0.37596088    2.6363949     4.363288    8.0108364    464559.09    77.448615    77.448615    77.448615    2.1525787    8.0847949   0.48775763    2.1486372 
  545000   0.90002638   0.37449301    2.6380935    4.3626247    8.0004133    464772.27    77.460459    77.460459    77.460459    2.1515914    8.0809949   0.48827901    2.1498145 
  550000   0.90065219   0.37583532    2.6361709    4.3629831    7.9572125    464552.35     77.44824     77.44824     77.44824    2.1526099    8.0595249   0.48778379    2.1483871 
  555000   0.90029337   0.37549414    2.6385739    4.3645068    8.0089765    464574.66     77.44948     77.44948     77.44948    2.1525065    8.0852743   0.48856985    2.1500041 
  560000   0.89949604   0.37597193    2.6388101    4.3640247     8.019374    464375.95    77.438436    77.438436    77.438436    2.1534276    8.0880291   0.48911806     2.149692 
  565000   0.90101478    0.3750455    2.6385599    4.3651263     7.986916    464542.56    77.447696    77.447696    77.447696    2.1526553    8.0753886   0.48922909    2.1493309 
  570000   0.90028435   0.37594017     2.639751    4.3661163    8.0090969    464549.49    77.448081    77.448081    77.448081    2.1526232    8.0867382   0.48750507    2.1522459 
  575000   0.90002259   0.37526645    2.6388332    4.3641322    7.9698368    464604.79    77.451154    77.451154    77.451154     2.152367    8.0669565   0.48977938    2.1490538 
  580000   0.89967101   0.37619283    2.6382583    4.3639563    7.9918464    464496.86    77.445157    77.445157    77.445157    2.1528671    8.0761439   0.48894413    2.1493142 
  585000   0.90029665   0.37575092    2.6375053    4.3636998     8.009562     464566.9    77.449049    77.449049    77.449049    2.1525425    8.0846772   0.48851027     2.148995 
  590000   0.89903564   0.37567429     2.637906    4.3621324    7.9967061    464624.59    77.452255    77.452255    77.452255    2.1522752    8.0775988   0.48871916    2.1491869 
  595000   0.90057677   0.37544745    2.6378633    4.3641746    7.9967973    464526.51    77.446804    77.446804    77.446804    2.1527297    8.0788989     0.489302    2.1485613 
  600000    0.8999246   0.37543822    2.6395273    4.3648511    8.0006524    464532.68    77.447147    77.447147    77.447147    2.1527011    8.0814156   0.48898354    2.1505437 
  605000   0.89973162   0.37579212    2.6372864    4.3626746    7.9970499    464369.94    77.438102    77.438102    77.438102    2.1534555    8.0762642   0.48825973    2.1490267 
  610000   0.90081485   0.37632037    2.6364411    4.3639824    7.9945106    464318.09     77.43522     77.43522     77.43522     2.153696    8.0759782   0.48904229    2.1473988 
  615000    0.8998373   0.37663722    2.6377368    4.3641286    8.0154871     464355.7    77.437311    77.437311    77.437311    2.1535215    8.0861658   0.48833651    2.1494003 
  620000   0.89937627   0.37634794    2.6385463    4.3639573    8.0181321    464415.25    77.440621    77.440621    77.440621    2.1532454    8.0877001   0.48754442    2.1510019 
  625000   0.90001993   0.37572049    2.6355261    4.3612751    8.0077783    464398.72    77.439702    77.439702    77.439702     2.153322    8.0800772   0.48843281    2.1470933 
  630000   0.90002322   0.37497802    2.6381233    4.3631348    7.9806242    464638.42    77.453023    77.453023    77.453023    2.1522112    8.0712395   0.48864794    2.1494754 
  635000   0.89999095   0.37591073    2.6380489    4.3639447    8.0095351     464550.1    77.448115    77.448115    77.448115    2.1526204     8.084775   0.48805795    2.1499909 
  640000   0.90092591   0.37642004    2.6349827    4.3627902    8.0220382    464415.91    77.440657    77.440657    77.440657    2.1532423    8.0883524    0.4876977     2.147285 
  645000   0.90017103   0.37549959    2.6373709    4.3631257    7.9841937    464558.89    77.448604    77.448604    77.448604    2.1525796    8.0722539   0.48781447    2.1495565 
  650000    0.8996432   0.37485337     2.638162    4.3624788    7.9718151    464529.24    77.446956    77.446956    77.446956     2.152717      8.06562   0.48872661    2.1494354 
  655000     0.899929   0.37558961    2.6359632    4.3614449    8.0039392    464548.53    77.448028    77.448028    77.448028    2.1526276    8.0796631   0.48908934    2.1468738 
  660000    0.9002722    0.3751267      2.63752    4.3630536     8.008805    464580.89    77.449826    77.449826    77.449826    2.1524777    8.0837914   0.48787202    2.1496479 
  665000   0.90005042   0.37609422    2.6368853    4.3630538    7.9924148    464500.97    77.445385    77.445385    77.445385     2.152848    8.0755383   0.48928245    2.1476029 
  670000   0.90025381   0.37568122    2.6361769    4.3622375    7.9952721    464427.48      77.4413      77.4413      77.4413    2.1531887    8.0754615   0.48861537    2.1475615 
  675000   0.89898068   0.37661804    2.6392329    4.3643206    7.9971833     464433.2    77.441618    77.441618    77.441618    2.1531622    8.0784781   0.48957227    2.1496607 
  680000   0.90014372   0.37613138    2.6359242    4.3622698    8.0048959    464309.36    77.434734    77.434734    77.434734    2.1537365    8.0790179   0.48817647    2.1477477 
  685000   0.90079081   0.37553631     2.635087    4.3618082    7.9988158    464562.59    77.448809    77.448809    77.448809    2.1525625    8.0777587    0.4878448    2.1472422 
  690000   0.90033649   0.37602072    2.6349512    4.3614753    7.9895322    464521.57     77.44653     77.44653     77.44653    2.1527526    8.0727854   0.48831802    2.1466332 
  695000   0.89922839   0.37588968    2.6369495    4.3616804    8.0029869    464458.07       77.443       77.443       77.443    2.1530469    8.0787322   0.48928959    2.1476599 
  700000   0.90033163   0.37575856    2.6332046    4.3594593    7.9762964    464587.39    77.450188    77.450188    77.450188    2.1524476     8.065146   0.48746473    2.1457399 
  705000   0.90036076   0.37457275    2.6381688    4.3632813    7.9809191    464752.83     77.45938     77.45938     77.45938    2.1516813    8.0724361   0.48959718    2.1485716 
  710000   0.90007613   0.37538311    2.6354735    4.3609695    7.9930478    464647.79    77.453543    77.453543    77.453543    2.1521678    8.0749215   0.48828985    2.1471837 
  715000   0.89980093   0.37544305    2.6347181    4.3598612    7.9755297    464436.15    77.441782    77.441782    77.441782    2.1531485    8.0639855   0.48853637    2.1461818 
  720000   0.89962944   0.37504104    2.6375062    4.3619901    8.0181276    464605.23    77.451178    77.451178    77.451178    2.1523649    8.0872541   0.48971253    2.1477937 
  725000    0.9005429   0.37487134    2.6349451    4.3606295    7.9902284    464552.95    77.448273    77.448273    77.448273    2.1526072    8.0725136   0.48876385    2.1461813 
  730000   0.90046042   0.37549735     2.635705    4.3618916     7.972348    464463.08    77.443279    77.443279    77.443279    2.1530237    8.0647529   0.48787901     2.147826 
  735000   0.90051594   0.37533836    2.6352297    4.3613406    7.9744064    464502.53    77.445472    77.445472    77.445472    2.1528408    8.0654726   0.48792212    2.1473076 
  740000   0.90007349   0.37626418    2.6369537    4.3633268    8.0220253     464377.3    77.438511    77.438511    77.438511    2.1534214    8.0885732   0.48902105    2.1479327 
  745000    0.8998243    0.3750516    2.6352407    4.3600274    7.9922273    464510.38    77.445908    77.445908    77.445908    2.1528044       8.0725   0.48912333    2.1461174 
  750000   0.89948048   0.37642061    2.6365109    4.3621508    7.9817339    464447.55    77.442416    77.442416    77.442416    2.1530956    8.0692476   0.48828255    2.1482283 
  755000   0.89914327   0.37623375    2.6373848    4.3623322    8.0030272    464379.18    77.438616    77.438616    77.438616    2.1534127    8.0787714   0.48859838    2.1487865 
  760000   0.89968964   0.37640728    2.6376194    4.3635598    8.0198014    464293.94    77.433877    77.433877    77.433877     2.153808     8.087105   0.48796215    2.1496573 
  765000   0.89979282   0.37542178    2.6360297    4.3611394    7.9872339    464591.12    77.450395    77.450395    77.450395    2.1524303    8.0719373   0.48851018    2.1475195 
  770000   0.89913363   0.37638577    2.6370016    4.3620865    8.0319648     464432.4    77.441574    77.441574    77.441574    2.1531659    8.0923912   0.48853208    2.1484695 
  775000   0.89925192   0.37578251    2.6373528    4.3620118     7.992527    464581.79    77.449876    77.449876    77.449876    2.1524735    8.0751943   0.48762133    2.1497315 
  780000   0.90027556   0.37569746    2.6352723    4.3613817    8.0175421    464456.92    77.442936    77.442936    77.442936    2.1530522    8.0851846   0.48804138    2.1472309 
  785000   0.89954003   0.37601365    2.6386497     4.363972    8.0166002    464446.98    77.442384    77.442384    77.442384    2.1530983    8.0872578    0.4889532    2.1496965 
  790000   0.89988493   0.37588586    2.6365299    4.3622418    7.9924784    464378.16    77.438559    77.438559    77.438559    2.1534174    8.0737742   0.48858927    2.1479406 
  795000   0.89902003    0.3753751     2.637869    4.3617728    7.9913715    464565.66     77.44898     77.44898     77.44898    2.1525482    8.0742896   0.48855456    2.1493144 
  800000   0.89964418   0.37506091    2.6353334    4.3598592    7.9974118    464631.56    77.452642    77.452642    77.452642     2.152243    8.0757091   0.48798375    2.1473496 
  805000   0.89880019   0.37510697    2.6375849    4.3608908    7.9868804       464492    77.444886    77.444886    77.444886    2.1528896    8.0707329   0.48842546    2.1491595 
  810000   0.89951506   0.37414702    2.6381726    4.3615909    7.9776246    464623.54    77.452196    77.452196    77.452196    2.1522801    8.0681831   0.48884395    2.1493287 
  815000   0.89925038    0.3757374    2.6377278    4.3623395    7.9741714    464421.55    77.440971    77.440971    77.440971    2.1532162    8.0657166   0.48863199    2.1490958 
  820000   0.90105902    0.3751134    2.6364819    4.3631825    7.9816845    464440.17    77.442006    77.442006    77.442006    2.1531299    8.0701974   0.48780046    2.1486814 
  825000   0.89985629   0.37592314    2.6356411    4.3613473    7.9811875    464514.98    77.446164    77.446164    77.446164    2.1527831    8.0687285   0.48717649    2.1484646 
  830000   0.89939657    0.3754477     2.637345    4.3618862    7.9911257    464434.04    77.441665    77.441665    77.441665    2.1531583    8.0732369   0.48939982    2.1479452 
  835000   0.89963182   0.37475976    2.6367445    4.3609506     7.987345    464567.32    77.449072    77.449072    77.449072    2.1525405    8.0716102   0.48956366    2.1471808 
  840000   0.89926864   0.37518265    2.6377097     4.361794    8.0145499     464600.3    77.450905    77.450905    77.450905    2.1523878    8.0853563   0.48859329    2.1491164 
  845000   0.89899086   0.37600151    2.6370293    4.3615157    7.9860043    464646.89    77.453494    77.453494    77.453494    2.1521719    8.0721878    0.4888502    2.1481791 
  850000   0.90017518   0.37645429    2.6368844    4.3636001    7.9947595    464390.08    77.439221    77.439221    77.439221    2.1533621    8.0762871   0.48814881    2.1487356 
  855000   0.89991699   0.37587149    2.6361725    4.3619181    7.9840697    464558.59    77.448587    77.448587    77.448587     2.152581    8.0709862   0.48821058    2.1479619 
  860000   0.89983973   0.37462494    2.6375833    4.3619665    7.9945562       464546    77.447887    77.447887    77.447887    2.1526394    8.0758056   0.48857056    2.1490127 
  865000    0.8988374   0.37572205    2.6358492     4.359826    7.9943752     464556.1    77.448448    77.448448    77.448448    2.1525926    8.0736618   0.48933524    2.1465139 
  870000   0.90015104   0.37541027    2.6351877    4.3608232    7.9867708    464341.92    77.436544    77.436544    77.436544    2.1535855    8.0694157   0.48791855    2.1472692 
  875000    0.8999671   0.37520884    2.6372719    4.3624301    8.0031654    464365.97    77.437881    77.437881    77.437881    2.1534739    8.0788278   0.48845249    2.1488194 
  880000   0.89937547   0.37586416    2.6336319    4.3585579    7.9834843    464501.78     77.44543     77.44543     77.44543    2.1528443    8.0669006   0.48857023    2.1450617 
  885000   0.89956109   0.37564682     2.636199    4.3611861    7.9900107    464363.93    77.437768    77.437768    77.437768    2.1534834    8.0714588   0.48813438    2.1480646 
  890000   0.89891237   0.37606104    2.6360305    4.3604587    8.0382984    464405.99    77.440106    77.440106    77.440106    2.1532883    8.0934926    0.4889061    2.1471244 
  895000   0.89886952   0.37646669    2.6384348    4.3632044    8.0094209     464306.5    77.434575    77.434575    77.434575    2.1537497    8.0820306   0.48819892    2.1502358 
  900000   0.89977151   0.37501214    2.6358397    4.3605077    7.9996785    464589.33    77.450295    77.450295    77.450295    2.1524386     8.077073   0.48912955    2.1467101 
  905000   0.89990407   0.37563774    2.6358592    4.3613517    7.9953816    464449.72    77.442536    77.442536    77.442536    2.1530856    8.0748045   0.48815801    2.1477012 
  910000   0.89915649   0.37451676    2.6354862    4.3587364    7.9822388    464467.73    77.443537    77.443537    77.443537    2.1530021    8.0662287   0.48956431    2.1459219 
  915000   0.90027046   0.37629128    2.6338687    4.3605643    8.0401247     464288.7    77.433586    77.433586    77.433586    2.1538323    8.0935034   0.48841827    2.1454504 
  920000    0.8985443   0.37469785    2.6359631     4.358476    7.9796134    464654.87    77.453937    77.453937    77.453937     2.152135    8.0662423   0.48876352    2.1471996 
  925000   0.89974537   0.37467383    2.6349884    4.3592789     7.981798    464556.76    77.448485    77.448485    77.448485    2.1525895    8.0672771   0.48816862    2.1468198 
  930000   0.89969973   0.37509309    2.6354498    4.3600912    8.0101316     464443.1    77.442168    77.442168    77.442168    2.1531163    8.0803415   0.48726105    2.1481888 
  935000   0.90036599   0.37525193    2.6359025    4.3617021    7.9990743    464422.13    77.441003    77.441003    77.441003    2.1532135    8.0766492   0.48777924    2.1481233 
  940000   0.89987344   0.37565326    2.6365048    4.3619668    7.9795322    464514.54    77.446139    77.446139    77.446139    2.1527851    8.0685756   0.48861734    2.1478874 
  945000   0.89951337   0.37545917    2.6358102    4.3605381    8.0170058     464400.4    77.439795    77.439795    77.439795    2.1533142    8.0836388   0.48765729    2.1481529 
  950000    0.8991374   0.37445101    2.6353021    4.3584579     7.985066    464571.32    77.449294    77.449294    77.449294     2.152522    8.0680905   0.48913999    2.1461621 
  955000   0.90111756   0.37494969    2.6338735    4.3604981    8.0127794    464468.78    77.443596    77.443596    77.443596    2.1529972     8.082184   0.48812523    2.1457482 
  960000   0.89889551   0.37538669     2.637416    4.3611446    8.0135348    464406.35    77.440126    77.440126    77.440126    2.1532867    8.0826811   0.48873837    2.1486777 
  965000   0.89961233   0.37584745    2.6343536    4.3596182    8.0208068       464296    77.433991    77.433991    77.433991    2.1537985    8.0836467   0.48842101    2.1459326 
  970000   0.89922836   0.37471174    2.6372467    4.3607996    7.9955283    464342.89    77.436598    77.436598    77.436598     2.153581    8.0734663   0.48840113    2.1488456 
  975000   0.89860058   0.37565939    2.6335292    4.3570881    8.0097174    464514.95    77.446162    77.446162    77.446162    2.1527832    8.0777216   0.48770881    2.1458204 
  980000   0.89798219   0.37502867    2.6366348    4.3586354    7.9982556    464567.31    77.449071    77.449071    77.449071    2.1525406    8.0743635   0.48923282     2.147402 
  985000   0.89891304   0.37640895     2.635536    4.3603132    8.0277171    464413.82    77.440541    77.440541    77.440541     2.153252    8.0884959   0.48882977    2.1467063 
  990000   0.89906691   0.37606979    2.6349563    4.3596251    8.0157836    464408.48    77.440244    77.440244    77.440244    2.1532768     8.082223   0.48814326    2.1468131 
  995000   0.89863668   0.37588543    2.6376462    4.3614853    8.0027575    464364.36    77.437792    77.437792    77.437792    2.1534814    8.0776806   0.48809086    2.1495553 
 1000000   0.89900758   0.37530966    2.6356604    4.3594801    7.9942793    464516.88    77.446269    77.446269    77.446269    2.1527743    8.0729577   0.48693463    2.1487258 
 1005000    0.8993231   0.37529585    2.6344429     4.358722    7.9981542    464488.45    77.444689    77.444689    77.444689    2.1529061    8.0737723   0.48814929    2.1462936 
 1010000   0.89904233   0.37555173    2.6364465    4.3605604    8.0332334    464351.21    77.437061    77.437061    77.437061    2.1535424     8.090802   0.48879038    2.1476561 
 1015000   0.89925008   0.37594722     2.635525     4.360346    8.0248311    464422.27    77.441011    77.441011    77.441011    2.1532128    8.0872564   0.48759733    2.1479277 
 1020000   0.89902538   0.37564937    2.6337762    4.3579623    8.0047231    464362.74    77.437702    77.437702    77.437702    2.1534889    8.0750574   0.48819641    2.1455798 
 1025000   0.89817707   0.37550205    2.6358556    4.3586219    7.9728541     464385.8    77.438984    77.438984    77.438984    2.1533819    8.0611022   0.48742825    2.1484274 
 1030000   0.89962032   0.37504346      2.63298    4.3574526    7.9788388    464513.82    77.446099    77.446099    77.446099    2.1527885    8.0637335   0.48746664    2.1455133 
 1035000    0.8990408   0.37593984    2.6325855    4.3570852    8.0317026    464362.14    77.437669    77.437669    77.437669    2.1534917    8.0867039   0.48772369    2.1448618 
 1040000   0.89848116   0.37592655    2.6351433    4.3587902    8.0039515    464472.11    77.443781    77.443781    77.443781    2.1529818    8.0764024   0.48774307    2.1474002 
 1045000   0.89926879   0.37533974    2.6335621    4.3578036    7.9935379    464542.07    77.447669    77.447669    77.447669    2.1526576    8.0711383   0.48719175    2.1463703 
 1050000   0.89861526   0.37495167    2.6371339    4.3600072    7.9630743    464439.95    77.441993    77.441993    77.441993    2.1531309     8.058377   0.48947258    2.1476614 
 1055000   0.89839128   0.37544128    2.6378405    4.3608673    8.0063351    464480.33    77.444238    77.444238    77.444238    2.1529437    8.0796525   0.48911218    2.1487283 
 1060000   0.89942076   0.37547215    2.6340466    4.3586486    8.0024322    464529.62    77.446977    77.446977    77.446977    2.1527152    8.0760154   0.48802429    2.1460224 
 1065000   0.89955154   0.37581708    2.6327349     4.357878    7.9866477    464552.95    77.448274    77.448274    77.448274    2.1526071    8.0680988   0.48758465    2.1451503 
 1070000   0.89818337   0.37576527    2.6351854    4.3582243    8.0079235    464498.97    77.445273    77.445273    77.445273    2.1528573    8.0778965   0.48874102    2.1464444 
 1075000   0.89901994    0.3766366    2.6358187    4.3609839    8.0181661     464250.5    77.431462    77.431462    77.431462    2.1540095    8.0834215   0.48921122    2.1466075 
 1080000   0.89872552   0.37644248    2.6351514    4.3596809    7.9912689    464470.32    77.443682    77.443682    77.443682    2.1529901    8.0713881   0.48779814    2.1473533 
 1085000   0.89901969   0.37599104    2.6357302    4.3602494    8.0171768    464442.42    77.442131    77.442131    77.442131    2.1531194    8.0837664   0.48835569    2.1473745 
 1090000    0.8992485   0.37565501     2.635915    4.3604415    7.9973123    464356.04    77.437329    77.437329    77.437329      2.15352    8.0740417   0.48878103     2.147134 
 1095000   0.90009952   0.37513456    2.6334222    4.3587047    8.0098961    464555.72    77.448427    77.448427    77.448427    2.1525943    8.0797478   0.48675579    2.1466664 
 1100000   0.89933253   0.37541954    2.6330595    4.3574765    8.0072247    464331.84    77.435984    77.435984    77.435984    2.1536322    8.0754859   0.48804056     2.145019 
 1105000   0.89877046   0.37608369    2.6326644    4.3569024    8.0158307    464442.55    77.442138    77.442138    77.442138    2.1531188    8.0797953   0.48809628    2.1445681 
 1110000   0.89765234   0.37520445    2.6351383    4.3568199    8.0151137    464371.64    77.438197    77.438197    77.438197    2.1534476    8.0788114   0.48843082    2.1467074 
 1115000   0.89980127   0.37595611    2.6317028    4.3573594    8.0045484    464395.25    77.439509    77.439509    77.439509    2.1533381    8.0746337   0.48720067    2.1445021 
 1120000   0.89958941   0.37478832    2.6330767    4.3572478     8.002929    464467.42     77.44352     77.44352     77.44352    2.1530035    8.0743476   0.48737577     2.145701 
 1125000   0.89880842   0.37474148    2.6365057    4.3594585    7.9941525    464538.98    77.447497    77.447497    77.447497    2.1526719    8.0730539   0.48855574    2.1479499 
 1130000   0.89985757   0.37508657    2.6346707    4.3595422    8.0137135    464529.47    77.446969    77.446969    77.446969     2.152716    8.0821483   0.48956284    2.1451078 
 1135000   0.89959077   0.37436842     2.634199    4.3579522    7.9918989    464569.89    77.449215    77.449215    77.449215    2.1525286    8.0707478   0.48760267    2.1465963 
 1140000   0.89886731   0.37419636    2.6364313    4.3589273    8.0148729    464472.48    77.443802    77.443802    77.443802    2.1529801    8.0816152   0.48877808    2.1476533 
 1145000   0.89952138   0.37615413    2.6329281     4.358363     8.009216    464433.14    77.441615    77.441615    77.441615    2.1531625    8.0781083   0.48772172    2.1452064 
 1150000   0.89841021   0.37524699    2.6361649    4.3590259    8.0089193     464519.5    77.446415    77.446415    77.446415    2.1527621    8.0793251   0.48836932    2.1477956 
 1155000   0.89997022    0.3748155    2.6354059    4.3601754    7.9931417    464421.83    77.440986    77.440986    77.440986    2.1532149    8.0723649   0.48881769    2.1465882 
 1160000   0.89873813   0.37588593    2.6353995    4.3593913    8.0347792    464297.04    77.434049    77.434049    77.434049    2.1537936    8.0899154   0.48798344     2.147416 
 1165000   0.89945714     0.375365    2.6356659    4.3602152    8.0242696     464278.5    77.433019    77.433019    77.433019    2.1538796    8.0857111   0.48864149    2.1470244 
 1170000   0.89936893   0.37505417    2.6322501    4.3563563    7.9986784    464613.98    77.451665    77.451665    77.451665    2.1523244    8.0726541   0.48691357    2.1453365 
 1175000   0.89924582   0.37526751    2.6341185    4.3582533     8.001284    464331.03    77.435939    77.435939    77.435939    2.1536359    8.0734978   0.48723001    2.1468885 
 1180000   0.89906537   0.37517955    2.6340211    4.3577974    8.0201654    464464.07    77.443334    77.443334    77.443334    2.1530191    8.0828761   0.48801377    2.1460074 
 1185000   0.89799649   0.37562201    2.6358799    4.3584953    8.0012507    464481.86    77.444323    77.444323    77.444323    2.1529366    8.0749312   0.48883072    2.1470492 
 1190000   0.89740928   0.37517553    2.6329143    4.3542024      7.94725    464689.81    77.455878    77.455878    77.455878    2.1519732    8.0472084    0.4874003     2.145514 
 1195000   0.89925152   0.37612966    2.6323877    4.3573933    8.0285471    464320.87    77.435374    77.435374    77.435374    2.1536831    8.0852153   0.48687288    2.1455148 
 1200000   0.89899705   0.37575393     2.633966    4.3582142     8.009875    464428.19     77.44134     77.44134     77.44134    2.1531854    8.0782259   0.48771001     2.146256 
 1205000   0.89870026   0.37608078    2.6331463    4.3572761    7.9962831    464506.67    77.445701    77.445701    77.445701    2.1528216    8.0716029   0.48817075    2.1449755 
 1210000   0.89816296   0.37651052    2.6335373    4.3572909     8.008377    464518.54    77.446361    77.446361    77.446361    2.1527666    8.0773305   0.48762537    2.1459119 
 1215000   0.89892518   0.37552417    2.6325786    4.3564892     8.018763    464424.36    77.441127    77.441127    77.441127    2.1532031    8.0805981   0.48784581    2.1447327 
 1220000   0.89947088   0.37606194    2.6339913    4.3592582    8.0337445    464280.46    77.433128    77.433128    77.433128    2.1538705    8.0891688   0.48830188    2.1456894 
 1225000    0.8995914   0.37563814    2.6333935    4.3584174    8.0030736    464512.18    77.446008    77.446008    77.446008    2.1527961    8.0759426   0.48805541    2.1453381 
 1230000   0.89855004   0.37547102    2.6330628    4.3563576    8.0068803    464593.04    77.450501    77.450501    77.450501    2.1524214    8.0762984   0.48715311    2.1459097 
 1235000   0.89913709   0.37628695     2.633301    4.3582922    8.0273214    464354.66    77.437253    77.437253    77.437253    2.1535264    8.0858163   0.48738903    2.1459119 
 1240000   0.89869087   0.37508364     2.634104    4.3572226    8.0445463    464399.09    77.439722    77.439722    77.439722    2.1533203    8.0931025   0.48820636    2.1458976 
 1245000   0.89855054   0.37523535    2.6358428    4.3589026    7.9692795    464642.14    77.453229    77.453229    77.453229     2.152194    8.0617657    0.4888361    2.1470067 
 1250000   0.89851341   0.37528954    2.6320471    4.3551054     7.993307    464586.97    77.450164    77.450164    77.450164    2.1524495    8.0686917   0.48697824    2.1450689 
 1255000   0.89762125   0.37627067    2.6347635    4.3574647    8.0004072    464361.14    77.437613    77.437613    77.437613    2.1534963    8.0725429   0.48891958     2.145844 
 1260000   0.89785279   0.37582379    2.6373964     4.359998    7.9819653    464467.96     77.44355     77.44355     77.44355    2.1530011    8.0673651   0.48867009    2.1487263 
 1265000    0.8984491     0.375917    2.6345177     4.358107    8.0016457    464440.13    77.442003    77.442003    77.442003    2.1531301    8.0743924   0.48723603    2.1472817 
 1270000   0.89915645     0.375067    2.6322077     4.356008     8.027746    464456.24    77.442899    77.442899    77.442899    2.1530554    8.0845447   0.48831477    2.1438929 
 1275000    0.8988929   0.37595192    2.6330938    4.3573837    8.0188537    464481.67    77.444312    77.444312    77.444312    2.1529375    8.0819943   0.48731013    2.1457837 
 1280000   0.89800864   0.37493727    2.6346352    4.3565841    7.9767608    464563.47    77.448858    77.448858    77.448858    2.1525584    8.0622957   0.48794256    2.1466926 
 1285000    0.8976008   0.37526949    2.6358048    4.3574741    7.9907729    464532.71    77.447149    77.447149    77.447149    2.1527009    8.0694495   0.48790774     2.147897 
 1290000   0.89829474   0.37531071    2.6318269    4.3545784    8.0037196    464583.17    77.449953    77.449953    77.449953    2.1524671    8.0729718   0.48853099    2.1432959 
 1295000   0.89898579   0.37651045    2.6334963    4.3584841    8.0093837    464317.84    77.435206    77.435206    77.435206    2.1536971    8.0773839    0.4889558    2.1445405 
 1300000   0.89813858   0.37558489    2.6345003    4.3572917    7.9837049     464532.7    77.447148    77.447148    77.447148     2.152701    8.0659836   0.48771942    2.1467808 
 1305000   0.89847525   0.37560572    2.6334177    4.3567349    8.0031693    464420.63    77.440919    77.440919    77.440919    2.1532205    8.0735718   0.48754104    2.1458766 
 1310000   0.89864666    0.3755339    2.6324611    4.3559636    8.0075932    464312.66    77.434918    77.434918    77.434918    2.1537211    8.0739906   0.48737938    2.1450817 
 1315000   0.89875329   0.37497879    2.6336702    4.3567775    7.9839037    464578.72    77.449706    77.449706    77.449706    2.1524877    8.0659293   0.48715075    2.1465194 
 1320000   0.89938568   0.37504688    2.6325687    4.3566927    8.0311936    464415.66    77.440643    77.440643    77.440643    2.1532435    8.0865048   0.48765869      2.14491 
 1325000     0.898737   0.37573084     2.630268     4.354103      8.01714    464583.79    77.449987    77.449987    77.449987    2.1524642    8.0787363    0.4871753    2.1430927 
 1330000   0.89925216   0.37497816     2.633471     4.357326    8.0066509    464452.71    77.442703    77.442703    77.442703    2.1530717    8.0760367   0.48725324    2.1462177 
 1335000   0.89768404   0.37571609    2.6359854    4.3582262    8.0027687    464463.63     77.44331     77.44331     77.44331    2.1530211    8.0752212    0.4875249    2.1484605 
 1340000   0.89846684   0.37536914    2.6331167    4.3561847    7.9904613    464380.34     77.43868     77.43868     77.43868    2.1534073    8.0667979   0.48875516    2.1443615 
 1345000   0.89781323   0.37563067    2.6324892    4.3548383    8.0008161    464442.14    77.442115    77.442115    77.442115    2.1531207    8.0707545   0.48712492    2.1453643 
 1350000   0.89801781   0.37590254     2.633993    4.3569209    8.0091307    464344.66    77.436696    77.436696    77.436696    2.1535728    8.0759179   0.48749837    2.1464946 
 1355000   0.89794432   0.37573034    2.6324641    4.3551096     8.001928    464400.97    77.439826    77.439826    77.439826    2.1533116    8.0712127   0.48950353    2.1429606 
 1360000   0.89786141   0.37593624    2.6344769     4.357204    8.0219668    464381.31    77.438734    77.438734    77.438734    2.1534028    8.0824554   0.48893228    2.1455447 
 1365000   0.89885748   0.37567515    2.6319227    4.3558827    8.0252415    464456.54    77.442916    77.442916    77.442916     2.153054    8.0832586   0.48878389    2.1431388 
 1370000    0.8976159   0.37573369     2.634455    4.3566112    8.0118458    464372.44    77.438241    77.438241    77.438241    2.1534439    8.0770916   0.48805497       2.1464 
 1375000   0.89866055    0.3753449     2.633566    4.3569004     8.002997    464527.94    77.446884    77.446884    77.446884     2.152723    8.0745161   0.48779787    2.1457681 
 1380000   0.89803251   0.37598119    2.6332575    4.3562861    8.0092381    464321.57    77.435413    77.435413    77.435413    2.1536798    8.0751481   0.48783572    2.1454217 
 1385000   0.89895285   0.37469844    2.6331696     4.356296    7.9972331    464506.32    77.445682    77.445682    77.445682    2.1528232    8.0710613   0.48807107    2.1450986 
 1390000   0.89744365   0.37542624    2.6337158    4.3553061    7.9898225    464516.85    77.446267    77.446267    77.446267    2.1527744    8.0667133   0.48824288    2.1454729 
 1395000   0.89804585   0.37578538    2.6332368    4.3560896    7.9941843    464359.79    77.437538    77.437538    77.437538    2.1535026    8.0682674   0.48773751    2.1454993 
 1400000   0.89879541   0.37487085    2.6347926    4.3578552    8.0020174    464356.63    77.437362    77.437362    77.437362    2.1535172     8.073645   0.48869314    2.1460995 
 1405000   0.89783918   0.37552285    2.6325649    4.3548451    8.0120702    464306.58     77.43458     77.43458     77.43458    2.1537494     8.074902   0.48846559    2.1440993 
 1410000   0.89928286   0.37486721    2.6324719     4.356262    7.9845761    464447.48    77.442412    77.442412    77.442412     2.153096    8.0646782   0.48728524    2.1451866 
 1415000   0.89891188    0.3751962    2.6342357    4.3577984    7.9713424    464440.99    77.442051    77.442051    77.442051     2.153126    8.0600166   0.48807566    2.1461601 
 1420000   0.89804444   0.37590426    2.6336093    4.3565789    8.0289551    464322.44    77.435461    77.435461    77.435461    2.1536758    8.0846028   0.48864396    2.1449653 
 1425000   0.89755982   0.37522588     2.632543    4.3541073    8.0149219    464453.28    77.442734    77.442734    77.442734    2.1530691     8.076664   0.48913044    2.1434126 
 1430000   0.89766121   0.37529677    2.6343766    4.3561639    8.0005938    464478.89    77.444158    77.444158    77.444158    2.1529504    8.0722708   0.48879642    2.1455802 
 1435000   0.89853261   0.37551434    2.6308469    4.3541588    7.9885613    464418.95    77.440826    77.440826    77.440826    2.1532282     8.064198   0.48849339    2.1423535 
 1440000   0.89769784   0.37587469    2.6339737    4.3563938    8.0286991     464359.2    77.437505    77.437505    77.437505    2.1535053    8.0845941    0.4887004    2.1452733 
 1445000   0.89835797   0.37447633    2.6344033    4.3564152    7.9834288    464473.63    77.443865    77.443865    77.443865    2.1529747    8.0645074   0.48808771    2.1463155 
 1450000   0.89776163   0.37481399    2.6302636    4.3517187    7.9763681    464520.12    77.446449    77.446449    77.446449    2.1527593    8.0569022   0.48828507    2.1419786 
 1455000   0.89638759   0.37534704    2.6321573    4.3520843    7.9703348    464481.34    77.444294    77.444294    77.444294     2.152939    8.0541561   0.48873112    2.1434261 
 1460000   0.89805332   0.37557713    2.6327676    4.3554234    8.0143362    464408.67    77.440255    77.440255    77.440255    2.1532759    8.0773506    0.4876481    2.1451195 
 1465000   0.89894237    0.3755069    2.6322253    4.3561444    8.0089208    464310.62    77.434804    77.434804    77.434804    2.1537306    8.0747714   0.48745599    2.1447693 
 1470000   0.89828739    0.3755896    2.6306572    4.3536766    7.9929835    464291.62    77.433748    77.433748    77.433748    2.1538187    8.0647519   0.48836336    2.1422939 
 1475000   0.89859361   0.37526077    2.6323943    4.3555441    7.9896489    464399.11    77.439723    77.439723    77.439723    2.1533202      8.06593   0.48838238    2.1440119 
 1480000   0.89747359   0.37528518    2.6313149    4.3528091    7.9618372    464503.74    77.445539    77.445539    77.445539    2.1528352    8.0511122   0.48793935    2.1433755 
 1485000   0.89764186   0.37636669    2.6318607    4.3546888    7.9913505    464443.69    77.442201    77.442201    77.442201    2.1531135    8.0662211   0.48925089    2.1426098 
 1490000   0.89814527    0.3756823    2.6320393    4.3549381    7.9987628    464444.91    77.442269    77.442269    77.442269    2.1531079    8.0699228     0.488104    2.1439353 
 1495000   0.89840711   0.37564067    2.6318403    4.3550903    8.0199588    464336.91    77.436266    77.436266    77.436266    2.1536087    8.0790533   0.48779051    2.1440498 
 1500000   0.89781444   0.37529664    2.6337004    4.3557173    8.0081825    464372.71    77.438256    77.438256    77.438256    2.1534426    8.0744987   0.48819423    2.1455061 
 1505000    0.8986528   0.37478143    2.6338751    4.3566344    7.9828555       464407    77.440162    77.440162    77.440162    2.1532837    8.0639283   0.48821808     2.145657 
 1510000   0.89806912   0.37513385    2.6336867    4.3559229    8.0049682    464330.46    77.435907    77.435907    77.435907    2.1536386    8.0728734    0.4883796    2.1453071 
 1515000   0.89736457   0.37615538    2.6311894    4.3533902    7.9865123    464311.54    77.434856    77.434856    77.434856    2.1537263    8.0616201   0.48770202    2.1434873 
 1520000   0.89835909   0.37596464    2.6294496    4.3529515    8.0144455    464405.54    77.440081    77.440081    77.440081    2.1532904    8.0749044   0.48760061     2.141849 
 1525000   0.89780437   0.37564605    2.6332118    4.3555631    8.0208581    464256.84    77.431815    77.431815    77.431815    2.1539801    8.0793013   0.48949282     2.143719 
 1530000   0.89799193   0.37559551    2.6313745    4.3539566    7.9824364    464434.53    77.441692    77.441692    77.441692     2.153156    8.0612757    0.4869428    2.1444317 
 1535000   0.89869594    0.3747289    2.6321607    4.3549322    8.0181856    464310.97    77.434824    77.434824    77.434824     2.153729    8.0778637   0.48791671     2.144244 
 1540000   0.89828864   0.37622849    2.6311566    4.3548167    8.0100134    464259.76    77.431977    77.431977    77.431977    2.1539666    8.0735436   0.48828753    2.1428691 
 1545000   0.89868774   0.37482786     2.632721    4.3555791    7.9879549    464326.98    77.435714    77.435714    77.435714    2.1536547    8.0646021   0.48694822    2.1457728 
 1550000   0.89787967   0.37489383    2.6312949    4.3530069    7.9996509    464550.44    77.448134    77.448134    77.448134    2.1526188    8.0692482     0.487201    2.1440939 
 1555000   0.89796709   0.37575098    2.6330386    4.3557389     7.995178    464269.11    77.432497    77.432497    77.432497    2.1539232    8.0676531   0.48774493    2.1452937 
 1560000   0.89865682   0.37464431    2.6297133    4.3523415    7.9837843    464446.04    77.442332    77.442332    77.442332    2.1531027    8.0603785   0.48820085    2.1415125 
 1565000   0.89809899   0.37465022    2.6305962    4.3523936    7.9840636    464507.24    77.445733    77.445733    77.445733     2.152819    8.0610489   0.48780065    2.1427956 
 1570000    0.8976025    0.3752811    2.6322719    4.3539554    7.9997333    464424.06     77.44111     77.44111     77.44111    2.1532046     8.069224   0.48786309    2.1444088 
 1575000   0.89825653   0.37531952    2.6297431    4.3524461    7.9973281    464434.36    77.441683    77.441683    77.441683    2.1531568    8.0666801   0.48827285    2.1414703 
 1580000   0.89885069   0.37436688    2.6302086    4.3528501    7.9918141    464551.74    77.448206    77.448206    77.448206    2.1526127    8.0654613   0.48738416    2.1428244 
 1585000    0.8979557   0.37583925    2.6329407    4.3557122    8.0091717    464317.77    77.435202    77.435202    77.435202    2.1536975    8.0745129   0.48929457    2.1436462 
 1590000   0.89754579    0.3754027    2.6328078    4.3545278     8.033265    464386.09       77.439       77.439       77.439    2.1533806    8.0850644   0.48790648    2.1449013 
 1595000   0.89879331   0.37532035     2.631128    4.3546369    8.0023758    464458.18    77.443007    77.443007    77.443007    2.1530464    8.0714058   0.48738397     2.143744 
 1600000   0.89749179   0.37570052    2.6312995    4.3532363    7.9882468    464362.11    77.437667    77.437667    77.437667    2.1534918    8.0626754   0.48733111    2.1439684 
 1605000   0.89770258   0.37594144    2.6318695    4.3543635     7.987018    464296.35    77.434011    77.434011    77.434011    2.1537968    8.0627067    0.4879041    2.1439654 
 1610000   0.89718335   0.37574923    2.6304116    4.3519345    7.9861536    464403.47    77.439966    77.439966    77.439966       2.1533    8.0607319   0.48779558     2.142616 
 1615000   0.89845136   0.37496645    2.6320834    4.3547256    8.0063904    464341.64    77.436529    77.436529    77.436529    2.1535868     8.072426   0.48665541     2.145428 
 1620000   0.89855118   0.37517837    2.6314201    4.3544239     8.012214    464309.26    77.434729    77.434729    77.434729    2.1537369     8.074569   0.48787145    2.1435486 
 1625000   0.89759953   0.37548607    2.6327399    4.3546239    7.9958903     464451.4     77.44263     77.44263     77.44263    2.1530778    8.0683263   0.48729017    2.1454497 
 1630000   0.89842639   0.37622198    2.6305585    4.3544187    8.0038344     464267.3    77.432396    77.432396    77.432396    2.1539316    8.0703373   0.48718668    2.1433718 
 1635000   0.89786741   0.37567989    2.6298014    4.3522811    8.0137239     464300.4    77.434236    77.434236    77.434236     2.153778    8.0730563   0.48801024    2.1417912 
 1640000   0.89838636   0.37462614    2.6309437     4.353148    7.9900801    464389.51     77.43919     77.43919     77.43919    2.1533647    8.0636574   0.48688819    2.1440555 
 1645000   0.89742327   0.37686903    2.6318598    4.3548624    8.0274487    464183.37     77.42773     77.42773     77.42773     2.154321    8.0810705    0.4873902    2.1444696 
 1650000   0.89842927   0.37521701    2.6289562    4.3518158    8.0189937    464328.42    77.435794    77.435794    77.435794    2.1536481    8.0752625    0.4880102     2.140946 
 1655000   0.89784586   0.37589583    2.6313599    4.3540232    8.0214794    464159.84    77.426422    77.426422    77.426422    2.1544302    8.0772718   0.48771442    2.1436455 
 1660000   0.89846121   0.37500239    2.6319453    4.3546381     7.989708    464375.27    77.438398    77.438398    77.438398    2.1534308    8.0648609   0.48769747    2.1442478 
 1665000   0.89754887   0.37543661    2.6341506    4.3559092    7.9827898     464298.3     77.43412     77.43412     77.43412    2.1537878     8.062305   0.48807889    2.1460718 
 1670000   0.89811774   0.37615383     2.631174    4.3545031     8.016313    464302.79    77.434369    77.434369    77.434369     2.153767    8.0764996   0.48677058    2.1444035 
 1675000   0.89759066    0.3749778    2.6304402    4.3518026    8.0207907    464497.13    77.445171    77.445171    77.445171    2.1528658    8.0774369   0.48766097    2.1427792 
 1680000   0.89721708   0.37494986    2.6308354    4.3516095    7.9726762    464435.09    77.441723    77.441723    77.441723    2.1531534    8.0544001   0.48705204    2.1437834 
 1685000    0.8972262   0.37519812    2.6333095    4.3543456    7.9863471    464355.55    77.437302    77.437302    77.437302    2.1535222    8.0628502   0.48802811    2.1452814 
 1690000   0.89812006   0.37464583    2.6306054      4.35243    7.9783467    464473.62    77.443865    77.443865    77.443865    2.1529748    8.0581616   0.48723232    2.1433731 
 1695000   0.89873629   0.37564663    2.6284385    4.3521882    7.9996387    464378.78    77.438594    77.438594    77.438594    2.1534145    8.0670508   0.48765409    2.1407844 
 1700000   0.89789526   0.37528763    2.6293521    4.3514813    7.9736301    464277.74    77.432976    77.432976    77.432976    2.1538832    8.0534602   0.48736788    2.1419842 
 1705000   0.89749034   0.37495985    2.6336214    4.3548154    8.0133743    464323.67     77.43553     77.43553     77.43553    2.1536701    8.0756148   0.48732987    2.1462915 
 1710000   0.89803832   0.37593975    2.6278308    4.3508267    7.9995537    464353.42    77.437184    77.437184    77.437184    2.1535321    8.0654469   0.48811831    2.1397125 
 1715000   0.89661348   0.37600542    2.6322553    4.3531795    8.0240874    464144.02    77.425542    77.425542    77.425542    2.1545037    8.0775117   0.48854231     2.143713 
 1720000   0.89778449   0.37474453    2.6278136    4.3492335    7.9714938    464580.25    77.449791    77.449791    77.449791    2.1524806    8.0526321   0.48644287    2.1413707 
 1725000   0.89736016   0.37602725    2.6305239    4.3525901    7.9919502     464490.6    77.444808    77.444808    77.444808    2.1528961    8.0647758   0.48730561    2.1432183 
 1730000   0.89793624   0.37534629    2.6298291    4.3520784    7.9977141    464306.68    77.434585    77.434585    77.434585    2.1537489    8.0654705    0.4881603    2.1416688 
 1735000   0.89787298   0.37630588     2.630928     4.354042    7.9806602    464361.49    77.437632    77.437632    77.437632    2.1534947    8.0599532   0.48767737    2.1432506 
 1740000   0.89739292   0.37551032     2.631509    4.3531073    7.9956007    464330.12    77.435888    77.435888    77.435888    2.1536402    8.0657056   0.48803096     2.143478 
 1745000   0.89786011    0.3758691    2.6301415    4.3527994    7.9970875    464449.92    77.442548    77.442548    77.442548    2.1530847     8.067046   0.48714597    2.1429955 
 1750000   0.89784796   0.37550456     2.629543    4.3518181    8.0038662    464374.55    77.438358    77.438358    77.438358    2.1534341    8.0686099   0.48787903    2.1416639 
 1755000    0.8973337   0.37520334    2.6306145     4.351817    8.0131367    464348.03    77.436884    77.436884    77.436884    2.1535571    8.0727013   0.48715409    2.1434604 
 1760000   0.89798856   0.37530851    2.6277337    4.3500237    7.9819306    464467.45    77.443522    77.443522    77.443522    2.1530034    8.0573706   0.48730284    2.1404308 
 1765000   0.89782377   0.37456259    2.6288054    4.3501023    7.9872833    464595.36     77.45063     77.45063     77.45063    2.1524107     8.060957   0.48852327    2.1402821 
 1770000   0.89819048   0.37628083    2.6312819    4.3548472    8.0035308    464325.35    77.435623    77.435623    77.435623    2.1536623    8.0710894   0.48815589    2.1431261 
 1775000   0.89812383   0.37612517    2.6300376    4.3533471      8.01675    464194.78    77.428364    77.428364    77.428364    2.1542681    8.0746807   0.48779705    2.1422405 
 1780000   0.89690098   0.37546147    2.6312308    4.3520424    8.0422562     464394.6    77.439473    77.439473    77.439473    2.1533412    8.0868227   0.48776895    2.1434618 
 1785000    0.8975768   0.37541638    2.6303105    4.3520907    8.0128911    464424.54    77.441137    77.441137    77.441137    2.1532023     8.073474   0.48838566    2.1419248 
 1790000   0.89713178   0.37567981    2.6302368    4.3516129    7.9910136    464389.83    77.439207    77.439207    77.439207    2.1533633    8.0625584   0.48766969    2.1425671 
 1795000   0.89795136   0.37616324    2.6290363    4.3521253    8.0065228    464325.37    77.435625    77.435625    77.435625    2.1536622     8.069757   0.48657888    2.1424575 
 1800000   0.89710676   0.37552665    2.6318718    4.3530572    7.9935778    464378.98    77.438604    77.438604    77.438604    2.1534136    8.0651067   0.48788399    2.1439878 
 1805000   0.89861032   0.37471292    2.6298598    4.3524868    7.9774743     464454.2    77.442785    77.442785    77.442785    2.1530648    8.0576583   0.48624277     2.143617 
 1810000   0.89781651   0.37581077    2.6279642    4.3504984    8.0048608    464299.14    77.434166    77.434166    77.434166    2.1537839    8.0671484   0.48635985    2.1416044 
 1815000   0.89702392    0.3757637    2.6283445    4.3496427    8.0114324    464205.67     77.42897     77.42897     77.42897    2.1542175    8.0685951   0.48732011    2.1410244 
 1820000   0.89787927   0.37488604    2.6286151    4.3503187    7.9530571    464372.13    77.438224    77.438224    77.438224    2.1534454    8.0434967   0.48694207     2.141673 
 1825000   0.89820285   0.37489334    2.6295582    4.3517545    8.0145007    464405.75    77.440092    77.440092    77.440092    2.1532895    8.0737347   0.48775635    2.1418019 
 1830000   0.89719659   0.37438819    2.6325207    4.3527024    8.0272086    464354.75    77.437258    77.437258    77.437258    2.1535259    8.0801748   0.48865111    2.1438695 
 1835000   0.89754327   0.37531037    2.6303269    4.3519509    8.0015096    464303.55    77.434411    77.434411    77.434411    2.1537634    8.0670801   0.48638091     2.143946 
 1840000   0.89872544   0.37520572    2.6294041    4.3526966    7.9782084    464358.21     77.43745     77.43745     77.43745    2.1535099    8.0574432   0.48684082    2.1425633 
 1845000   0.89765864   0.37540387    2.6293775     4.351268    8.0047384    464330.79    77.435926    77.435926    77.435926    2.1536371    8.0681146   0.48662886    2.1427487 
 1850000   0.89839866   0.37463553    2.6281217    4.3503539    8.0059696    464307.77    77.434646    77.434646    77.434646    2.1537438    8.0675878   0.48736857    2.1407532 
 1855000   0.89845617   0.37501163    2.6286997    4.3513942    8.0309665    464302.08     77.43433     77.43433     77.43433    2.1537702    8.0801887   0.48735574     2.141344 
 1860000   0.89823797   0.37549317    2.6283602     4.351209    7.9949008    464394.41    77.439462    77.439462    77.439462     2.153342    8.0639962   0.48662863    2.1417315 
 1865000   0.89713277   0.37539232     2.631194    4.3522841    7.9880781    464369.72     77.43809     77.43809     77.43809    2.1534565    8.0617057    0.4878171    2.1433769 
 1870000    0.8964992   0.37529359    2.6323578    4.3523988    7.9882055       464289    77.433603    77.433603    77.433603    2.1538309    8.0612348   0.48826104    2.1440967 
 1875000    0.8975746   0.37577263    2.6296847    4.3518179     8.008096    464331.68    77.435975    77.435975    77.435975    2.1536329    8.0702305   0.48712434    2.1425603 
 1880000   0.89812741   0.37584532    2.6296063    4.3526414    8.0297388    464166.67    77.426801    77.426801    77.426801    2.1543986    8.0797784   0.48794559    2.1416607 
 1885000   0.89788033   0.37484999    2.6294054    4.3510745    8.0152681    464395.29    77.439511    77.439511    77.439511     2.153338    8.0733273   0.48869469    2.1407107 
 1890000    0.8979686   0.37463259    2.6289611    4.3505453    7.9920481    464370.76    77.438148    77.438148    77.438148    2.1534517    8.0618187    0.4864796    2.1424815 
 1895000   0.89844452   0.37511027    2.6279552    4.3507309    7.9927823    464484.98    77.444496    77.444496    77.444496    2.1529221    8.0632583   0.48727312    2.1406821 
 1900000   0.89699438    0.3756694    2.6296284    4.3507881    7.9691742    464289.49     77.43363     77.43363     77.43363    2.1538287    8.0507919   0.48698518    2.1426433 
 1905000    0.8974141   0.37619162    2.6282086      4.35052    7.9777386    464314.62    77.435027    77.435027    77.435027    2.1537121    8.0547006   0.48709411    2.1411145 
 1910000   0.89722032   0.37469979    2.6312658    4.3517947    7.9982767    464325.36    77.435624    77.435624    77.435624    2.1536622    8.0655974   0.48758425    2.1436815 
 1915000   0.89665364   0.37504939    2.6281002    4.3481287    7.9943284    464495.17    77.445062    77.445062    77.445062    2.1528749    8.0614556   0.48753675    2.1405634 
 1920000   0.89673667   0.37524639    2.6302572    4.3506073    7.9957855    464296.34    77.434011    77.434011    77.434011    2.1537968    8.0630212   0.48715601    2.1431012 
 1925000   0.89692168   0.37576902    2.6285743    4.3497245    8.0168957    464240.43    77.430903    77.430903    77.430903    2.1540562    8.0714916   0.48744992    2.1411244 
 1930000    0.8972886   0.37588033    2.6290374    4.3508493    7.9976959    464253.82    77.431646    77.431646    77.431646    2.1539941    8.0638101   0.48677906    2.1422584 
 1935000   0.89731586   0.37514976    2.6307703    4.3518925    7.9973973    464362.29    77.437677    77.437677    77.437677     2.153491    8.0655822   0.48721908    2.1435512 
 1940000   0.89726718   0.37458359    2.6290514    4.3495344     7.987822    464406.51    77.440135    77.440135    77.440135    2.1532859     8.059131   0.48737211    2.1416793 
 1945000   0.89676779   0.37695977    2.6293656    4.3514757    8.0099672    464192.16    77.428218    77.428218    77.428218    2.1542803    8.0696397   0.48771403    2.1416516 
 1950000   0.89756837   0.37565243    2.6301522    4.3521559    8.0164084    464382.95    77.438825    77.438825    77.438825    2.1533952    8.0748393   0.48697658    2.1431756 
 1955000   0.89752854   0.37539332    2.6274265    4.3491113    8.0050275    464352.63     77.43714     77.43714     77.43714    2.1535358    8.0662669   0.48746027    2.1399662 
 1960000    0.8977648   0.37488239    2.6280493    4.3495775    7.9762688       464510    77.445886    77.445886    77.445886    2.1528062    8.0546341   0.48594488    2.1421044 
 1965000   0.89749424   0.37403682    2.6292973    4.3495741    7.9852198    464493.68     77.44498     77.44498     77.44498    2.1528818    8.0586583    0.4875387    2.1417586 
 1970000   0.89665622   0.37613338    2.6291939    4.3503102    8.0167409    464331.63    77.435973    77.435973    77.435973    2.1536331    8.0727366    0.4866538    2.1425401 
 1975000   0.89772741   0.37446384    2.6322018    4.3532554    8.0039896    464372.15    77.438225    77.438225    77.438225    2.1534452    8.0700853   0.48690334    2.1452984 
 1980000   0.89715591   0.37614649    2.6292685    4.3511475    8.0235959    464235.94    77.430653    77.430653    77.430653    2.1540771    8.0759891   0.48703576    2.1422327 
 1985000   0.89769774   0.37544969    2.6275312    4.3495262    7.9678789     464386.7    77.439034    77.439034    77.439034    2.1533778    8.0497032   0.48677868    2.1407526 
 1990000   0.89766874    0.3747547    2.6275949    4.3488514    7.9907538     464517.6    77.446309    77.446309    77.446309     2.152771    8.0606972   0.48679556    2.1407993 
 1995000   0.89672591   0.37499274    2.6301742    4.3502545    7.9801747    464419.63    77.440864    77.440864    77.440864    2.1532251    8.0564043   0.48682804    2.1433462 
 2000000   0.89720765   0.37547825     2.629969    4.3512574     8.000648    464256.06    77.431771    77.431771    77.431771    2.1539837    8.0656067    0.4862747    2.1436943 
 2005000   0.89638015    0.3752945    2.6316479    4.3515113    8.0224377    464166.16    77.426773    77.426773    77.426773    2.1544009    8.0752553   0.48855761    2.1430903 
 2010000   0.89852105   0.37528414    2.6266258    4.3496902    7.9825548    464425.56    77.441193    77.441193    77.441193    2.1531976    8.0569927     0.486204    2.1404218 
 2015000   0.89790932   0.37523118    2.6277007    4.3497945    7.9902554    464372.73    77.438257    77.438257    77.438257    2.1534426    8.0602512   0.48734969     2.140351 
 2020000   0.89626394   0.37634609    2.6306889    4.3514296    8.0133722    464221.24    77.429836    77.429836    77.429836    2.1541453    8.0714072   0.48770912    2.1429798 
 2025000   0.89668724   0.37487723    2.6319172     4.351824    8.0201789    464217.13    77.429607    77.429607    77.429607    2.1541643    8.0749284   0.48820752    2.1437097 
 2030000   0.89748543   0.37514838    2.6287511    4.3501263    8.0087859    464376.76    77.438481    77.438481    77.438481    2.1534238    8.0692204   0.48687595    2.1418752 
 2035000    0.8980331   0.37591244    2.6307379    4.3536987    8.0101937    464193.58    77.428297    77.428297    77.428297    2.1542737    8.0719792   0.48785265    2.1428853 
 2040000   0.89740424    0.3744366    2.6286237    4.3491653    8.0032197    464368.48    77.438021    77.438021    77.438021    2.1534623    8.0656083   0.48691716    2.1417065 
 2045000   0.89714889   0.37431476    2.6299914    4.3500282    7.9865155    464484.88    77.444491    77.444491    77.444491    2.1529226    8.0596439   0.48680108    2.1431903 
 2050000   0.89754958   0.37424416    2.6299789    4.3505461    8.0037829    464600.68    77.450926    77.450926    77.450926     2.152386    8.0691091   0.48673953    2.1432394 
 2055000    0.8968248   0.37490253    2.6297432    4.3498815    7.9813763    464349.02    77.436939    77.436939    77.436939    2.1535525    8.0560258   0.48804161    2.1417015 
 2060000   0.89713397   0.37455904    2.6288345    4.3490931    7.9943598    464257.95    77.431876    77.431876    77.431876     2.153975    8.0605382   0.48764618    2.1411883 
 2065000   0.89695112   0.37427813     2.629801    4.3495044    7.9995921    464371.92    77.438212    77.438212    77.438212    2.1534463    8.0642904   0.48730665    2.1424943 
 2070000   0.89668403   0.37609877    2.6268028    4.3479263    8.0273215     464231.8    77.430422    77.430422    77.430422    2.1540963    8.0744642   0.48678359    2.1400192 
 2075000    0.8977351   0.37497776    2.6255385    4.3471176    8.0108509    464365.61    77.437861    77.437861    77.437861    2.1534756    8.0670813   0.48630287    2.1392356 
 2080000   0.89732013   0.37564134    2.6291551    4.3507753    8.0210135    464209.21    77.429167    77.429167    77.429167    2.1542011    8.0742036   0.48710867    2.1420464 
 2085000   0.89772055   0.37537202    2.6292389    4.3511904    8.0112618    464265.17    77.432278    77.432278    77.432278    2.1539415    8.0705402   0.48743843    2.1418005 
 2090000   0.89717867   0.37535127     2.627284    4.3484019    7.9814102    464466.09    77.443446    77.443446    77.443446    2.1530097    8.0554963   0.48682727    2.1404567 
 2095000   0.89678057    0.3751786    2.6304168    4.3507649    8.0355651    464338.21    77.436338    77.436338    77.436338    2.1536026    8.0819848   0.48859761    2.1418192 
 2100000   0.89669743   0.37464641    2.6282605    4.3479518    8.0140677    464324.16    77.435557    77.435557    77.435557    2.1536678     8.069077   0.48682696    2.1414336 
 2105000     0.896587   0.37494311    2.6272522    4.3470745    7.9746656    464561.89     77.44877     77.44877     77.44877    2.1525657    8.0518002   0.48649739    2.1407548 
 2110000   0.89738638   0.37602149     2.627329    4.3494287    7.9733365    464252.38    77.431567    77.431567    77.431567    2.1540008    8.0510692   0.48503352    2.1422955 
 2115000   0.89687209   0.37565351    2.6274484    4.3484087    7.9796173     464385.3    77.438956    77.438956    77.438956    2.1533842    8.0540257   0.48733883    2.1401096 
 2120000   0.89685904   0.37487778    2.6285357    4.3487007    8.0122076    464255.97    77.431766    77.431766    77.431766    2.1539842    8.0684159   0.48738565    2.1411501 
 2125000   0.89811954    0.3745222    2.6250284    4.3467285    7.9707021    464471.53    77.443749    77.443749    77.443749    2.1529845    8.0488927    0.4863558    2.1386726 
 2130000   0.89755163    0.3751357    2.6272335    4.3486953    7.9847355    464295.18    77.433946    77.433946    77.433946    2.1538022    8.0559695   0.48733711    2.1398964 
 2135000   0.89700794   0.37380139    2.6285633    4.3478753    7.9574745    464549.01    77.448055    77.448055    77.448055    2.1526254    8.0445122   0.48679392    2.1417694 
 2140000   0.89769392   0.37402133    2.6279577    4.3485185    8.0006733    464323.52    77.435521    77.435521    77.435521    2.1536708    8.0634193   0.48726182    2.1406958 
 2145000   0.89812473   0.37490547    2.6272683    4.3493595    8.0024177    464406.03    77.440108    77.440108    77.440108    2.1532882    8.0657305   0.48561588    2.1416524 
 2150000     0.897375    0.3752644     2.629382    4.3507076    8.0331706    464244.86    77.431148    77.431148    77.431148    2.1540357    8.0800657   0.48756728    2.1418147 
 2155000   0.89688843   0.37587817    2.6280985    4.3493079     8.009275    464276.82    77.432925    77.432925    77.432925    2.1538874    8.0678286   0.48648504    2.1416134 
 2160000   0.89728095   0.37521514    2.6239695    4.3451047    7.9945721     464401.7    77.439867    77.439867    77.439867    2.1533082    8.0577976   0.48661014    2.1373593 
 2165000   0.89642487    0.3751039     2.626405    4.3461449    7.9846416    464378.37     77.43857     77.43857     77.43857    2.1534164    8.0540397   0.48720017    2.1392049 
 2170000   0.89715828   0.37548468    2.6270085    4.3482293    8.0225533    464093.58    77.422737    77.422737    77.422737    2.1547379    8.0714447   0.48694929    2.1400592 
 2175000   0.89627199   0.37450992    2.6269308    4.3458474    8.0154582    464274.69    77.432807    77.432807    77.432807    2.1538973    8.0672218   0.48824476    2.1386861 
[...]
74480000   0.75280135   0.32356106     1.521879    2.9746409    7.9831486    429300.02    75.437445    75.437445    75.437445    2.3293733    6.4018068   0.40539069    1.1164883 
74485000   0.75280597   0.32491468    1.5221313    2.9762538    8.0239493    429124.95    75.427189    75.427189    75.427189    2.3303236    6.4195307   0.40609936     1.116032 
74490000   0.75250972   0.32453729    1.5223339    2.9756347    8.0016117     429139.1    75.428018    75.428018    75.428018    2.3302467    6.4094391   0.40585109    1.1164828 
74495000   0.75288977   0.32332674    1.5226723    2.9753325    7.9901638    429235.94    75.433691    75.433691    75.433691     2.329721     6.404998   0.40573299    1.1169393 
74500000   0.75327727   0.32392804    1.5222579    2.9761007    8.0207832    429197.57    75.431444    75.431444    75.431444    2.3299293    6.4186013   0.40561415    1.1166437 
74505000   0.75306279   0.32410031    1.5228039    2.9764973    8.0168721    429147.72    75.428523    75.428523    75.428523       2.3302    6.4169197   0.40599066    1.1168133 
74510000   0.75307434   0.32387433    1.5214958    2.9749805    7.9918841    429173.77    75.430049    75.430049    75.430049    2.3300585    6.4048875    0.4065483    1.1149475 
74515000   0.75299637   0.32448382    1.5211433    2.9751206    8.0375644    429105.21    75.426032    75.426032    75.426032    2.3304308    6.4240813   0.40547483    1.1156685 
74520000   0.75267629   0.32395242    1.5228635    2.9758292    8.0056929    429189.98    75.430999    75.430999    75.430999    2.3299705    6.4117924   0.40631337    1.1165501 
74525000   0.75244447   0.32426594    1.5213436    2.9742751    8.0000386     429277.1    75.436102    75.436102    75.436102    2.3294977    6.4085085   0.40533275    1.1160109 
74530000   0.75243478   0.32383394     1.522058     2.974543    8.0078949     429229.4    75.433308    75.433308    75.433308    2.3297565     6.411767   0.40674854    1.1153095 
74535000   0.75266189    0.3246142     1.520905    2.9745109    8.0013268     429220.3    75.432775    75.432775    75.432775    2.3298059    6.4088428   0.40689731    1.1140077 
74540000   0.75290901   0.32399871    1.5211461    2.9745072    7.9789453    429202.01    75.431704    75.431704    75.431704    2.3299052    6.3990866   0.40567932    1.1154668 
74545000   0.75270828    0.3239282    1.5212419    2.9742314    8.0076552    429196.39    75.431374    75.431374    75.431374    2.3299357    6.4110881   0.40636972    1.1148722 
74550000    0.7535043   0.32459756    1.5207952     2.975648    8.0178184    429095.33    75.425453    75.425453    75.425453    2.3304845    6.4160564   0.40647849    1.1143167 
74555000   0.75371761    0.3239369    1.5206842    2.9751964    7.9928729    429168.19    75.429722    75.429722    75.429722    2.3300888    6.4054832   0.40558606    1.1150981 
74560000   0.75230375   0.32501697    1.5198749    2.9733464    8.0082781    429167.95    75.429708    75.429708    75.429708    2.3300901    6.4102427   0.40565589     1.114219 
74565000   0.75219636   0.32404403    1.5207138    2.9730513    7.9996045    429164.77    75.429522    75.429522    75.429522    2.3301074    6.4061997   0.40571582     1.114998 
74570000   0.75258151   0.32440091     1.520339     2.973611    7.9766833    429083.57    75.424764    75.424764    75.424764    2.3305483    6.3962747   0.40664846    1.1136905 
74575000   0.75279023   0.32414767    1.5194059    2.9727378    7.9847019    429169.13    75.429777    75.429777    75.429777    2.3300837    6.3995254   0.40597537    1.1134306 
74580000   0.75234684   0.32438279    1.5203175    2.9732194     8.022815    429113.03     75.42649     75.42649     75.42649    2.3303884    6.4159138   0.40611755    1.1141999 
74585000   0.75277077   0.32406026    1.5210134    2.9742287    7.9950116    429042.72    75.422371    75.422371    75.422371    2.3307702    6.4044303   0.40641283    1.1146006 
74590000   0.75312088   0.32277883    1.5211158    2.9735748    7.9952515    429191.32    75.431077    75.431077    75.431077    2.3299633    6.4050674   0.40651689    1.1145989 
74595000   0.75226409   0.32404356    1.5210005    2.9734391    8.0008327    429122.72    75.427058    75.427058    75.427058    2.3303357    6.4067782   0.40628358     1.114717 
74600000   0.75340017   0.32373593    1.5178782    2.9717132    7.9920806    428989.01    75.419223    75.419223    75.419223    2.3310621    6.4002279   0.40516012    1.1127181 
74605000   0.75244279   0.32410246    1.5194942    2.9722597    8.0159334     429125.6    75.427227    75.427227    75.427227    2.3303201     6.412102   0.40638984    1.1131044 
74610000   0.75302823   0.32382109    1.5189877      2.97235    7.9949167    429213.24    75.432361    75.432361    75.432361    2.3298443    6.4038741   0.40584796    1.1131398 
74615000   0.75250081   0.32392597    1.5201789     2.972855    7.9994943    429175.36    75.430142    75.430142    75.430142    2.3300499    6.4060408   0.40615778    1.1140211 
74620000   0.75225059   0.32493675    1.5206033    2.9739148    8.0291291     429023.3    75.421233    75.421233    75.421233    2.3308757    6.4185983    0.4062846    1.1143187 
74625000    0.7518478   0.32387671    1.5211852    2.9728325    8.0028167    429193.79    75.431222    75.431222    75.431222    2.3299498    6.4075918   0.40649093    1.1146943 
74630000     0.752721   0.32378012    1.5199386    2.9727991     7.995698    429168.12    75.429718    75.429718    75.429718    2.3300892    6.4042977   0.40624853      1.11369 
74635000   0.75152163   0.32374001    1.5207175    2.9717388    7.9818696    429139.87    75.428063    75.428063    75.428063    2.3302426    6.3970773   0.40784013    1.1128773 
74640000   0.75291194   0.32349615    1.5189921     2.971855    7.9762763     429075.6    75.424298    75.424298    75.424298    2.3305916    6.3942806   0.40539098    1.1136011 
74645000   0.75227841   0.32433999    1.5197785     2.972535    7.9702067    429177.74    75.430282    75.430282    75.430282     2.330037    6.3931703   0.40630101    1.1134775 
74650000   0.75276069   0.32323361    1.5197512    2.9721247     7.980994    429077.14    75.424388    75.424388    75.424388    2.3305833    6.3965868   0.40577566    1.1139755 
74655000    0.7525891   0.32368049    1.5194206    2.9719836    8.0044126    429146.27    75.428438    75.428438    75.428438    2.3302079    6.4070474   0.40623994    1.1131807 
74660000   0.75186448   0.32315704    1.5201241    2.9710767    7.9833256    429302.65    75.437599    75.437599    75.437599     2.329359    6.3983395   0.40634147    1.1137826 
74665000    0.7513605   0.32315409    1.5209725    2.9711662     7.958682    429321.75    75.438717    75.438717    75.438717    2.3292554    6.3880015   0.40612397    1.1148485 
74670000   0.75216488    0.3245652     1.519333    2.9721443    7.9836385    429096.75    75.425537    75.425537    75.425537    2.3304767    6.3978977   0.40590167    1.1134313 
74675000   0.75260734   0.32294218    1.5181744    2.9700264    7.9824308    429189.78    75.430987    75.430987    75.430987    2.3299716    6.3960041   0.40647154    1.1117028 
74680000   0.75291965   0.32467174     1.519908    2.9739581    8.0244924    429009.87    75.420446    75.420446    75.420446    2.3309487    6.4165445    0.4065774    1.1133306 
74685000   0.75245619   0.32411322    1.5199274    2.9727238    7.9863839    429134.41    75.427743    75.427743    75.427743    2.3302722    6.3999559   0.40629216    1.1136352 
74690000   0.75216475   0.32412885    1.5203616    2.9727364    8.0039473    429118.22    75.426795    75.426795    75.426795    2.3303601    6.4073761   0.40579703    1.1145646 
74695000   0.75196635   0.32360617    1.5219008    2.9734554    7.9963626     429118.4    75.426805    75.426805    75.426805    2.3303592    6.4048417    0.4061638     1.115737 
74700000   0.75307938   0.32435852    1.5205691    2.9745456    7.9908597    429040.33     75.42223     75.42223     75.42223    2.3307832    6.4029466   0.40614638    1.1144227 
74705000   0.75299465   0.32462871    1.5201313    2.9742508     8.026448    429088.41    75.425048    75.425048    75.425048     2.330522    6.4183067   0.40559413    1.1145372 
74710000   0.75201534   0.32458251    1.5206752    2.9732795    8.0066654    428971.96    75.418224    75.418224    75.418224    2.3311547    6.4079145   0.40686464    1.1138105 
74715000   0.75201218   0.32402526    1.5186466     2.970689    8.0178949     429074.3    75.424221    75.424221    75.424221    2.3305987    6.4109617   0.40556596    1.1130806 
74720000   0.75234379   0.32405168     1.519359    2.9719252    7.9864947     429178.8    75.430344    75.430344    75.430344    2.3300312    6.3995595   0.40623598     1.113123 
74725000   0.75264426   0.32449448    1.5195046    2.9729643    8.0042661    429116.65    75.426702    75.426702    75.426702    2.3303687    6.4077282   0.40623879    1.1132658 
74730000   0.75225226   0.32408768    1.5206421     2.973107    7.9681942    429154.66    75.428929    75.428929    75.428929    2.3301623    6.3926947   0.40595102    1.1146911 
74735000   0.75266356   0.32433716    1.5186456     2.971977    7.9851106    429028.23    75.421522    75.421522    75.421522    2.3308489    6.3978149   0.40547994    1.1131657 
74740000    0.7523481   0.32397566    1.5187164    2.9712131    7.9824837    429055.44    75.423116    75.423116    75.423116    2.3307012    6.3961411   0.40651865    1.1121977 
74745000   0.75226922   0.32371049    1.5173247    2.9694379    7.9859082    429162.62    75.429396    75.429396    75.429396    2.3301191    6.3966912   0.40581394    1.1115108 
74750000    0.7525843   0.32357766    1.5178494    2.9703024    7.9879051    429171.13    75.429894    75.429894    75.429894    2.3300729    6.3984806   0.40552516    1.1123242 
74755000   0.75250001   0.32475282    1.5186045    2.9721062    7.9629768    429027.55    75.421482    75.421482    75.421482    2.3308526    6.3884427   0.40567538    1.1129291 
74760000   0.75159046   0.32444763    1.5204987    2.9723309    7.9915684    429014.97    75.420745    75.420745    75.420745     2.330921    6.4008334    0.4059339    1.1145648 
74765000   0.75280314    0.3227553    1.5186565    2.9706153    7.9751074    429064.37    75.423639    75.423639    75.423639    2.3306526    6.3924498   0.40636202    1.1122944 
74770000   0.75211057   0.32442175    1.5182816    2.9708681     8.042343    428954.18    75.417182    75.417182    75.417182    2.3312513    6.4206647   0.40663748    1.1116441 
74775000   0.75261881   0.32445591    1.5186012    2.9719841    8.0064885    428969.74    75.418094    75.418094    75.418094    2.3311668    6.4065255     0.406159    1.1124421 
74780000   0.75200748   0.32340523    1.5184928    2.9699081    7.9826029    429044.88    75.422497    75.422497    75.422497    2.3307585    6.3948029   0.40629324    1.1121995 
74785000   0.75180208   0.32384041    1.5185513    2.9700937    7.9899766    429034.49    75.421888    75.421888    75.421888     2.330815    6.3980692   0.40598796    1.1125634 
74790000   0.75277943   0.32436995    1.5174357    2.9709736    8.0392879    428952.02    75.417056    75.417056    75.417056     2.331263    6.4194424   0.40505206    1.1123836 
74795000   0.75186325   0.32455529    1.5179783    2.9703273    8.0218968    428894.62    75.413691    75.413691    75.413691    2.3315751    6.4108757   0.40613828      1.11184 
74800000   0.75117062   0.32570674    1.5186711    2.9711326    8.0146119    428887.57    75.413278    75.413278    75.413278    2.3316134       6.4085   0.40622621    1.1124449 
74805000   0.75182438   0.32323345    1.5199119    2.9708808    7.9888468    429151.64    75.428753    75.428753    75.428753    2.3301787    6.3993075   0.40540551    1.1145064 
74810000   0.75246796   0.32334697    1.5193481    2.9713959    8.0084694    429050.74     75.42284     75.42284     75.42284    2.3307267    6.4074356   0.40556479    1.1137833 
74815000   0.75209884   0.32378766     1.518049    2.9699838    8.0119896    429086.89    75.424959    75.424959    75.424959    2.3305303    6.4078235    0.4053169    1.1127321 
74820000   0.75174182   0.32441025    1.5183703    2.9703921    8.0005481    429057.63    75.423244    75.423244    75.423244    2.3306893    6.4030883   0.40645552    1.1119147 
74825000   0.75261535   0.32412799     1.519895    2.9729449    8.0070566       429082    75.424673    75.424673    75.424673    2.3305568    6.4086288   0.40620338    1.1136916 
74830000   0.75193044   0.32329802    1.5179253    2.9691178    7.9717047    429154.35    75.428911    75.428911    75.428911     2.330164    6.3902095    0.4056548    1.1122705 
74835000   0.75212538   0.32328697     1.516749    2.9682229    7.9862172    429191.29    75.431075    75.431075    75.431075    2.3299634    6.3958377     0.405517     1.111232 
74840000   0.75215877    0.3249471    1.5165887    2.9697729    8.0134149    428932.79    75.415929    75.415929    75.415929    2.3313676    6.4069893   0.40515642    1.1114323 
74845000   0.75218049   0.32414233    1.5175861     2.969998    8.0160624    428975.75    75.418446    75.418446    75.418446    2.3311341    6.4086944   0.40535825    1.1122278 
74850000   0.75268996   0.32312399    1.5183878    2.9705456    7.9818683    429139.22    75.428025    75.428025    75.428025    2.3302461    6.3958784   0.40612386     1.112264 
74855000   0.75196596   0.32308929    1.5196297    2.9706668    7.9876701    429084.44    75.424815    75.424815    75.424815    2.3305436    6.3980518    0.4059512    1.1136785 
74860000   0.75244155   0.32340431    1.5163456    2.9684111    8.0096351    429101.96    75.425842    75.425842    75.425842    2.3304485    6.4053613   0.40563871    1.1107069 
74865000   0.75273957   0.32435789     1.518979    2.9724451    8.0423804    429013.03    75.420631    75.420631    75.420631    2.3309315    6.4227311   0.40572176    1.1132573 
74870000   0.75242234   0.32319078    1.5180106    2.9698338    7.9938761    429126.21    75.427263    75.427263    75.427263    2.3303168    6.4002155   0.40646167     1.111549 
74875000    0.7518337   0.32306224     1.518456    2.9692677    7.9712879    429242.84    75.434096    75.434096    75.434096    2.3296836    6.3908859   0.40534368    1.1131123 
74880000   0.75145684   0.32373545    1.5188229    2.9697425    8.0155207    429099.74    75.425712    75.425712    75.425712    2.3304605    6.4092003   0.40682685     1.111996 
74885000   0.75208816   0.32353967    1.5179044    2.9695751    7.9805556    429104.96    75.426018    75.426018    75.426018    2.3304322    6.3940712   0.40616321    1.1117412 
74890000   0.75145243   0.32421817    1.5183315    2.9697272    8.0132026    429034.14    75.421868    75.421868    75.421868    2.3308169    6.4076647   0.40631065    1.1120209 
74895000   0.75169281   0.32350804    1.5196391    2.9706853    7.9918685    429130.74    75.427528    75.427528    75.427528    2.3302922    6.4002417   0.40630565    1.1133335 
74900000   0.75274687   0.32367736    1.5180687    2.9708652    8.0044641     429079.1    75.424502    75.424502    75.424502    2.3305726    6.4054134   0.40460649    1.1134622 
74905000   0.75120817   0.32357235    1.5186288    2.9690122     7.965387    429161.12    75.429308    75.429308    75.429308    2.3301272    6.3874467   0.40555885    1.1130699 
74910000   0.75271215   0.32401224    1.5183704    2.9714498    7.9826996    429035.88     75.42197     75.42197     75.42197    2.3308074    6.3963143   0.40574009    1.1126304 
74915000   0.75110618   0.32458426    1.5189967    2.9702391    8.0132759    428974.47    75.418371    75.418371    75.418371    2.3311411    6.4077298    0.4060025    1.1129942 
74920000   0.75261984   0.32413053    1.5155168     2.968576    8.0082589    429058.36    75.423287    75.423287    75.423287    2.3306853    6.4045864   0.40579643    1.1097204 
74925000   0.75175392   0.32449995    1.5167907    2.9689204    8.0077138    429007.37    75.420299    75.420299    75.420299    2.3309623    6.4042887   0.40459434    1.1121964 
74930000   0.75163845   0.32497702    1.5179669    2.9704005    8.0378664    428805.49    75.408467    75.408467    75.408467    2.3320597    6.4170817   0.40598938    1.1119775 
74935000    0.7521484   0.32413555    1.5166619    2.9690189    7.9885141    428952.81    75.417102    75.417102    75.417102    2.3312588    6.3957145   0.40508001    1.1115819 
74940000   0.75275582   0.32411327     1.516535    2.9697808    8.0045013    428913.77    75.414814    75.414814    75.414814    2.3314709    6.4030217   0.40616551    1.1103694 
74945000   0.75184554    0.3246272    1.5195319    2.9719262    8.0504752     428923.6     75.41539     75.41539     75.41539    2.3314175     6.424965   0.40623119    1.1133007 
74950000   0.75137649   0.32397829    1.5201549    2.9711968    7.9941473    429050.02    75.422799    75.422799    75.422799    2.3307306    6.4010859   0.40643545    1.1137195 
74955000   0.75181137   0.32425127    1.5189252    2.9708923    7.9946622    429102.63    75.425881    75.425881    75.425881    2.3304448     6.401423   0.40502616     1.113899 
74960000   0.75140262    0.3233451    1.5186002    2.9690481    7.9720632    429120.77    75.426944    75.426944    75.426944    2.3303463     6.390026   0.40518661    1.1134136 
74965000   0.75179116   0.32478032    1.5175494    2.9700154    8.0236462    428929.77    75.415751    75.415751    75.415751     2.331384    6.4115961   0.40535524    1.1121942 
74970000   0.75137763   0.32332084    1.5191477    2.9695338    8.0023137    429192.75    75.431161    75.431161    75.431161    2.3299555    6.4040688    0.4062342    1.1129135 
74975000   0.75128931   0.32416023    1.5188375    2.9699306    7.9983309    429061.76    75.423486    75.423486    75.423486    2.3306668    6.4017085   0.40556716    1.1132704 
74980000   0.75190512   0.32471898    1.5180311    2.9706066    8.0141715    429029.78    75.421612    75.421612    75.421612    2.3308405    6.4089248   0.40522924    1.1128018 
74985000   0.75140681   0.32497353    1.5184932    2.9705758    8.0012263    429001.22    75.419939    75.419939    75.419939    2.3309957    6.4031117   0.40566023     1.112833 
74990000   0.75173836   0.32453149    1.5178344    2.9699723    8.0030968    429002.68    75.420024    75.420024    75.420024    2.3309878    6.4033222   0.40577273    1.1120616 
74995000   0.75159356   0.32395741     1.519316    2.9706626    8.0071507    429045.47    75.422532    75.422532    75.422532    2.3307553    6.4060943   0.40595952    1.1133565 
75000000   0.75190216   0.32404759    1.5183606    2.9702603    7.9949976    429055.95    75.423146    75.423146    75.423146    2.3306984    6.4005615    0.4057178    1.1126428 
Loop time of 460286 on 96 procs for 75000000 steps with 1000000 atoms

Performance: 140782.156 tau/day, 162.942 timesteps/s
76.6% CPU use with 96 MPI tasks x no OpenMP threads

MPI task timing breakdown:
Section |  min time  |  avg time  |  max time  |%varavg| %total
---------------------------------------------------------------
Pair    | 83804      | 87265      | 92332      | 643.7 | 18.96
Bond    | 1.1733e+05 | 1.2049e+05 | 1.2493e+05 | 596.4 | 26.18
Neigh   | 88954      | 89587      | 90067      |  78.6 | 19.46
Comm    | 63850      | 76665      | 85612      |1805.2 | 16.66
Output  | 1216.6     | 1216.8     | 1217.1     |   0.3 |  0.26
Modify  | 75262      | 80682      | 86729      | 986.9 | 17.53
Other   |            | 4384       |            |       |  0.95

Nlocal:    10416.7 ave 10795 max 10097 min
Histogram: 5 4 11 17 21 12 12 9 3 2
Nghost:    5958.94 ave 6180 max 5829 min
Histogram: 5 12 19 19 20 11 8 1 0 1
Neighs:    100080 ave 110191 max 90790 min
Histogram: 4 4 8 18 21 14 12 9 4 2

Total # of neighbors = 9607682
Ave neighs/atom = 9.60768
Ave special neighs/atom = 5.988
Neighbor list builds = 7500000
Dangerous builds = 7499925

write_data	out.75

Total wall time: 127:51:32
